
                                 *****************
                                 * O   R   C   A *
                                 *****************

                                            #,                                       
                                            ###                                      
                                            ####                                     
                                            #####                                    
                                            ######                                   
                                           ########,                                 
                                     ,,################,,,,,                         
                               ,,#################################,,                 
                          ,,##########################################,,             
                       ,#########################################, ''#####,          
                    ,#############################################,,   '####,        
                  ,##################################################,,,,####,       
                ,###########''''           ''''###############################       
              ,#####''   ,,,,##########,,,,          '''####'''          '####       
            ,##' ,,,,###########################,,,                        '##       
           ' ,,###''''                  '''############,,,                           
         ,,##''                                '''############,,,,        ,,,,,,###''
      ,#''                                            '''#######################'''  
     '                                                          ''''####''''         
             ,#######,   #######,   ,#######,      ##                                
            ,#'     '#,  ##    ##  ,#'     '#,    #''#        ,####,   ,####,        
            ##       ##  ##   ,#'  ##            #'  '#       #'       #'  '#        
            ##       ##  #######   ##           ,######,      #####,   #    #        
            '#,     ,#'  ##    ##  '#,     ,#' ,#      #,     #,   #   #,  ,#        
             '#######'   ##     ##  '#######'  #'      '#     '####' # '####'        



                #########################################################
                #                        -***-                          #
                #          Department of theory and spectroscopy        #
                #                                                       #
                #                      Frank Neese                      #
                #                                                       #
                #     Directorship, Architecture, Infrastructure        #
                #                    SHARK, DRIVERS                     #
                #        Core code/Algorithms in most modules           #
                #                                                       #
                #        Max Planck Institute fuer Kohlenforschung      #
                #                Kaiser Wilhelm Platz 1                 #
                #                 D-45470 Muelheim/Ruhr                 #
                #                      Germany                          #
                #                                                       #
                #                  All rights reserved                  #
                #                        -***-                          #
                #########################################################


                         Program Version 6.0.0  -   RELEASE  -


 With contributions from (in alphabetic order):
   Daniel Aravena         : Magnetic Suceptibility
   Michael Atanasov       : Ab Initio Ligand Field Theory (pilot matlab implementation)
   Alexander A. Auer      : GIAO ZORA, VPT2 properties, NMR spectrum
   Ute Becker             : All parallelization in ORCA, NUMFREQ, NUMCALC
   Giovanni Bistoni       : ED, misc. LED, open-shell LED, HFLD
   Martin Brehm           : Molecular dynamics
   Dmytro Bykov           : pre 5.0 version of the SCF Hessian
   Marcos Casanova-Páez   : Triplet and SCS-CIS(D). UHF-(DLPNO)-IP/EA/STEOM-CCSD. UHF-CVS-IP/STEOM-CCSD
   Vijay G. Chilkuri      : MRCI spin determinant printing, contributions to CSF-ICE
   Pauline Colinet        : FMM embedding
   Dipayan Datta          : RHF DLPNO-CCSD density
   Achintya Kumar Dutta   : EOM-CC, STEOM-CC
   Nicolas Foglia         : Exact transition moments, OPA infrastructure, MCD improvements
   Dmitry Ganyushin       : Spin-Orbit,Spin-Spin,Magnetic field MRCI
   Miquel Garcia          : C-PCM and meta-GGA Hessian, CCSD/C-PCM, Gaussian charge scheme
   Tiago L. C. Gouveia    : GS-ROHF, GS-ROCIS
   Yang Guo               : DLPNO-NEVPT2, F12-NEVPT2, CIM, IAO-localization
   Andreas Hansen         : Spin unrestricted coupled pair/coupled cluster methods
   Ingolf Harden          : AUTO-CI MPn and infrastructure 
   Benjamin Helmich-Paris : MC-RPA, TRAH-(SCF,CASSCF), AVAS, COSX integrals, SCF dyn. polar.
   Lee Huntington         : MR-EOM, pCC
   Robert Izsak           : Overlap fitted RIJCOSX, COSX-SCS-MP3, EOM
   Riya Kayal             : Wick's Theorem for AUTO-CI, AUTO-CI UHF-CCSDT
   Emily Kempfer          : AUTO-CI, RHF CISDT and CCSDT
   Christian Kollmar      : KDIIS, OOCD, Brueckner-CCSD(T), CCSD density, CASPT2, CASPT2-K, improved NEVPT2
   Axel Koslowski         : Symmetry handling
   Simone Kossmann        : Meta GGA functionals, TD-DFT gradient, OOMP2, (MP2 Hessian; deprecated post 5.0)
   Lucas Lang             : DCDCAS
   Marvin Lechner         : AUTO-CI (C++ implementation), FIC-MRCC
   Spencer Leger          : CASSCF response
   Dagmar Lenk            : GEPOL surface, SMD, ORCA-2-JSON
   Dimitrios Liakos       : Extrapolation schemes; Compound Job, initial MDCI parallelization
   Dimitrios Manganas     : Further ROCIS development; embedding schemes. LFT, Crystal Embedding
   Dimitrios Pantazis     : SARC Basis sets
   Anastasios Papadopoulos: AUTO-CI, single reference methods and gradients
   Taras Petrenko         : pre 6.0 DFT Hessian and TD-DFT gradient, (ASA, deprecated), ECA, 1-Electron XAS/XES, NRVS
   Peter Pinski           : DLPNO-MP2, DLPNO-MP2 Gradient
   Christoph Reimann      : Effective Core Potentials
   Marius Retegan         : Local ZFS, SOC
   Christoph Riplinger    : Optimizer, TS searches, QM/MM, DLPNO-CCSD(T), (RO)-DLPNO pert. Triples
   Michael Roemelt        : Original ROCIS implementation
   Masaaki Saitow         : Open-shell DLPNO-CCSD energy and density
   Barbara Sandhoefer     : DKH picture change effects
   Kantharuban Sivalingam : CASSCF convergence/infrastructure, NEVPT2 and variants, FIC-MRCI
   Bernardo de Souza      : ESD, SOC TD-DFT
   Georgi Stoychev        : AutoAux, RI-MP2 NMR, DLPNO-MP2 response, X2C
   Van Anh Tran           : RI-MP2 g-tensors
   Willem Van den Heuvel  : Paramagnetic NMR
   Zikuan Wang            : NOTCH, Electric field optimization 
   Frank Wennmohs         : Technical directorship and infrastructure
   Hang Xu                : AUTO-CI-Response properties 


 We gratefully acknowledge several colleagues who have allowed us to
 interface, adapt or use parts of their codes:
   Stefan Grimme, W. Hujo, H. Kruse, P. Pracht,  : VdW corrections, initial TS optimization,
                  C. Bannwarth, S. Ehlert,         DFT functionals, gCP, sTDA/sTD-DF
                  L. Wittmann, M. Mueller
   Ed Valeev, F. Pavosevic, A. Kumar             : LibInt (2-el integral package), F12 methods
   Garnet Chan, S. Sharma, J. Yang, R. Olivares  : DMRG
   Ulf Ekstrom                                   : XCFun DFT Library
   Mihaly Kallay                                 : mrcc  (arbitrary order and MRCC methods)
   Frank Weinhold                                : gennbo (NPA and NBO analysis)
   Simon Mueller                                 : openCOSMO-RS
   Christopher J. Cramer and Donald G. Truhlar   : smd solvation model
   Lars Goerigk                                  : TD-DFT with DH, B97 family of functionals
   V. Asgeirsson, H. Jonsson                     : NEB implementation
   FAccTs GmbH                                   : IRC, NEB, NEB-TS, DLPNO-Multilevel, CI-OPT
                                                   MM, QMMM, 2- and 3-layer-ONIOM, Crystal-QMMM,
                                                   LR-CPCM, SF, NACMEs, symmetry and pop. for TD-DFT,
                                                   nearIR, NL-DFT gradient (VV10), updates on ESD,
                                                   ML-optimized integration grids, MBIS, APM,
                                                   GOAT, DOCKER, SOLVATOR, interface openCOSMO-RS
   S Lehtola, MJT Oliveira, MAL Marques          : LibXC Library
   Liviu Ungur et al                             : ANISO software


 Your calculation uses the libint2 library for the computation of 2-el integrals
 For citations please refer to: http://libint.valeyev.net

 Your ORCA version has been built with support for libXC version: 6.2.2
 For citations please refer to: https://libxc.gitlab.io

 This ORCA versions uses:
   CBLAS   interface :  Fast vector & matrix operations
   LAPACKE interface :  Fast linear algebra routines
   SCALAPACK package :  Parallel linear algebra routines
   Shared memory     :  Shared parallel matrices
   BLAS/LAPACK       :  OpenBLAS 0.3.27  USE64BITINT DYNAMIC_ARCH NO_AFFINITY Cooperlake SINGLE_THREADED
        Core in use  :  Cooperlake
   Copyright (c) 2011-2014, The OpenBLAS Project


NOTE: MaxCore=5000 MB was set to SCF,MP2,MDCI,CIPSI,MRCI and CIS
      => If you want to overwrite this, your respective input block should be placed after the MaxCore statement


***************************************
The coordinates will be read from file: BSF-2_opt_pbe0_tzvp_gcp_d4_cpcm-toluene.xyz
***************************************


Warning: RI is on but no J-basis has been assigned. Assigning Def2/J (nothing to worry about!)
================================================================================

----- Orbital basis set information -----
Your calculation utilizes the basis: def2-TZVP
   F. Weigend and R. Ahlrichs, Phys. Chem. Chem. Phys. 7, 3297 (2005).

----- AuxJ basis set information -----
Your calculation utilizes the auxiliary basis: def2/J
   F. Weigend, Phys. Chem. Chem. Phys. 8, 1057 (2006).

================================================================================
                                        WARNINGS
                       Please study these warnings very carefully!
================================================================================

INFO   : Checking CIS options ...

WARNING: (CIS/TDDFT): Spin-orbit needs TRIPLETS set to TRUE
  ===> : ajusting flags

WARNING: CIS/ROCIS methods need fully converged wavefunctions
  ===> : Setting SCFConvForced true
         You can overwrite this default with %scf ConvForced false 


================================================================================
                                       INPUT FILE
================================================================================
NAME = BSF-2_SOC_nroots-10_pbe0_tzvp_cpcm-toluene.inp
|  1> ! PBE0 def2-TZVP TightSCF
|  2> ! CPCM(toluene)
|  3> ! PAL16
|  4> 
|  5> %maxcore 5000
|  6> 
|  7> %tddft
|  8>   nroots 10
|  9>   DOSOC TRUE
| 10> end
| 11> 
| 12> *xyzfile 0 1 BSF-2_opt_pbe0_tzvp_gcp_d4_cpcm-toluene.xyz
| 13> 
| 14>                          ****END OF INPUT****
================================================================================

                       ****************************
                       * Single Point Calculation *
                       ****************************

---------------------------------
CARTESIAN COORDINATES (ANGSTROEM)
---------------------------------
  C     -2.942433   -4.339322   -0.124591
  C     -2.377932   -5.618507   -0.187196
  C     -2.140195   -3.195220   -0.092267
  C     -0.774602   -3.361743   -0.123689
  C     -0.204026   -4.637281   -0.185599
  C     -1.004101   -5.772306   -0.217939
  C      0.296937   -2.292683   -0.096432
  C      1.556525   -3.130483   -0.151239
  C      1.246186   -4.493347   -0.203309
  C      2.251907   -5.449709   -0.259873
  H      2.017814   -6.507505   -0.300437
  C      3.569200   -5.029377   -0.264100
  C      3.872989   -3.664112   -0.212211
  C      2.863293   -2.699563   -0.154929
  H      3.115294   -1.645759   -0.115347
  H     -2.592877   -2.211084   -0.043683
  H     -0.568314   -6.763837   -0.265819
  C      0.051543   -0.463834   -3.454930
  C     -0.071722    0.835319   -2.963120
  C      0.190273   -1.540467   -2.581918
  C      0.182010   -1.290397   -1.227933
  C      0.062782    0.007982   -0.725634
  C     -0.056008    1.079977   -1.599216
  C      0.213961   -1.389862    1.118334
  C      0.081880   -0.053857    0.731548
  C     -0.015753    0.939629    1.695978
  H     -0.124080    1.981749    1.415508
  C     -0.000033    0.579938    3.034188
  C      0.252902   -1.754175    2.445444
  H      0.375328   -2.788879    2.747075
  N      0.022279   -0.695842   -4.841621
  H      0.305260   -2.545700   -2.972790
  H     -0.154855    2.094539   -1.228736
  C     -0.843370   -1.560970   -5.492086
  C     -1.867087   -2.342075   -4.968778
  H     -2.087671   -2.351495   -3.907824
  C     -2.607165   -3.106311   -5.855414
  H     -3.412389   -3.724715   -5.473486
  C     -2.342109   -3.094538   -7.228464
  H     -2.941178   -3.707026   -7.893086
  C     -1.330027   -2.304301   -7.744453
  H     -1.132272   -2.287006   -8.811113
  C     -0.572094   -1.526178   -6.874457
  C      0.133356   -0.756361    3.410133
  C     -4.361154   -4.202225   -0.092917
  C      5.237585   -3.250894   -0.218240
  C      0.848611   -0.105007   -5.783643
  C      0.511338   -0.596380   -7.060773
  C      1.220033   -0.159026   -8.175767
  H      0.971104   -0.528933   -9.164892
  C      2.249313    0.749414   -8.001935
  H      2.810386    1.100710   -8.860696
  C      2.580100    1.215637   -6.725724
  H      3.397376    1.919655   -6.611421
  C      1.889955    0.796723   -5.600502
  H      2.160483    1.156580   -4.614928
  N      0.132203   -1.107378    4.771831
  C     -0.718525   -2.029258    5.361323
  C     -1.748919   -2.767628    4.791299
  H     -1.988681   -2.687393    3.737523
  C     -2.470313   -3.608606    5.622141
  H     -3.279997   -4.196211    5.202841
  C     -2.180653   -3.712806    6.986282
  H     -2.765462   -4.382776    7.606652
  C     -1.162283   -2.964427    7.550065
  H     -0.945698   -3.037100    8.610714
  C     -0.422640   -2.111041    6.736650
  C      0.973216   -0.594892    5.746185
  C      0.660601   -1.194790    6.982570
  C      1.387133   -0.849374    8.118248
  H      1.157239   -1.303004    9.076653
  C      2.409395    0.076316    8.004308
  H      2.983932    0.356923    8.880006
  C      2.715873    0.650623    6.766679
  H      3.528271    1.366156    6.698338
  C      2.007744    0.324501    5.622039
  H      2.259673    0.767804    4.666003
  H     -0.195584    1.653351   -3.663452
  H     -0.107740    1.335084    3.804286
  H     -3.028970   -6.484248   -0.210682
  N     -5.507803   -4.091821   -0.067779
  N      6.340179   -2.916549   -0.223292
  H      4.376711   -5.750365   -0.307813

----------------------------
CARTESIAN COORDINATES (A.U.)
----------------------------
  NO LB      ZA    FRAG     MASS         X           Y           Z
   0 C     6.0000    0    12.011   -5.560393   -8.200130   -0.235442
   1 C     6.0000    0    12.011   -4.493639  -10.617439   -0.353748
   2 C     6.0000    0    12.011   -4.044383   -6.038091   -0.174360
   3 C     6.0000    0    12.011   -1.463785   -6.352773   -0.233738
   4 C     6.0000    0    12.011   -0.385554   -8.763192   -0.350731
   5 C     6.0000    0    12.011   -1.897477  -10.908078   -0.411845
   6 C     6.0000    0    12.011    0.561129   -4.332543   -0.182231
   7 C     6.0000    0    12.011    2.941406   -5.915755   -0.285801
   8 C     6.0000    0    12.011    2.354950   -8.491196   -0.384199
   9 C     6.0000    0    12.011    4.255488  -10.298458   -0.491089
  10 H     1.0000    0     1.008    3.813116  -12.297402   -0.567744
  11 C     6.0000    0    12.011    6.744810   -9.504144   -0.499076
  12 C     6.0000    0    12.011    7.318889   -6.924169   -0.401021
  13 C     6.0000    0    12.011    5.410840   -5.101435   -0.292773
  14 H     1.0000    0     1.008    5.887052   -3.110034   -0.217973
  15 H     1.0000    0     1.008   -4.899828   -4.178344   -0.082549
  16 H     1.0000    0     1.008   -1.073957  -12.781800   -0.502325
  17 C     6.0000    0    12.011    0.097401   -0.876518   -6.528872
  18 C     6.0000    0    12.011   -0.135535    1.578524   -5.599485
  19 C     6.0000    0    12.011    0.359565   -2.911061   -4.879117
  20 C     6.0000    0    12.011    0.343949   -2.438496   -2.320457
  21 C     6.0000    0    12.011    0.118640    0.015084   -1.371250
  22 C     6.0000    0    12.011   -0.105840    2.040861   -3.022080
  23 C     6.0000    0    12.011    0.404327   -2.626458    2.113345
  24 C     6.0000    0    12.011    0.154731   -0.101776    1.382425
  25 C     6.0000    0    12.011   -0.029770    1.775641    3.204935
  26 H     1.0000    0     1.008   -0.234477    3.744962    2.674923
  27 C     6.0000    0    12.011   -0.000063    1.095923    5.733784
  28 C     6.0000    0    12.011    0.477915   -3.314911    4.621220
  29 H     1.0000    0     1.008    0.709267   -5.270218    5.191220
  30 N     7.0000    0    14.007    0.042101   -1.314950   -9.149337
  31 H     1.0000    0     1.008    0.576857   -4.810675   -5.617760
  32 H     1.0000    0     1.008   -0.292633    3.958105   -2.321975
  33 C     6.0000    0    12.011   -1.593739   -2.949805  -10.378539
  34 C     6.0000    0    12.011   -3.528282   -4.425879   -9.389630
  35 H     1.0000    0     1.008   -3.945126   -4.443682   -7.384717
  36 C     6.0000    0    12.011   -4.926828   -5.870077  -11.065129
  37 H     1.0000    0     1.008   -6.448481   -7.038691  -10.343390
  38 C     6.0000    0    12.011   -4.425944   -5.847830  -13.659818
  39 H     1.0000    0     1.008   -5.558020   -7.005264  -14.915771
  40 C     6.0000    0    12.011   -2.513388   -4.354497  -14.634895
  41 H     1.0000    0     1.008   -2.139684   -4.321816  -16.650590
  42 C     6.0000    0    12.011   -1.081102   -2.884058  -12.990841
  43 C     6.0000    0    12.011    0.252007   -1.429315    6.444217
  44 C     6.0000    0    12.011   -8.241387   -7.941054   -0.175588
  45 C     6.0000    0    12.011    9.897601   -6.143300   -0.412415
  46 C     6.0000    0    12.011    1.603643   -0.198435  -10.929501
  47 C     6.0000    0    12.011    0.966289   -1.126994  -13.342928
  48 C     6.0000    0    12.011    2.305528   -0.300516  -15.449960
  49 H     1.0000    0     1.008    1.835120   -0.999538  -17.319135
  50 C     6.0000    0    12.011    4.250585    1.416186  -15.121466
  51 H     1.0000    0     1.008    5.310860    2.080041  -16.744288
  52 C     6.0000    0    12.011    4.875682    2.297222  -12.709776
  53 H     1.0000    0     1.008    6.420111    3.627623  -12.493776
  54 C     6.0000    0    12.011    3.571498    1.505587  -10.583414
  55 H     1.0000    0     1.008    4.082722    2.185620   -8.720950
  56 N     7.0000    0    14.007    0.249827   -2.092641    9.017454
  57 C     6.0000    0    12.011   -1.357816   -3.834741   10.131431
  58 C     6.0000    0    12.011   -3.304978   -5.230059    9.054243
  59 H     1.0000    0     1.008   -3.758062   -5.078436    7.062894
  60 C     6.0000    0    12.011   -4.668215   -6.819276   10.624307
  61 H     1.0000    0     1.008   -6.198297   -7.929689    9.831944
  62 C     6.0000    0    12.011   -4.120837   -7.016186   13.202160
  63 H     1.0000    0     1.008   -5.225966   -8.282246   14.374490
  64 C     6.0000    0    12.011   -2.196397   -5.601955   14.267556
  65 H     1.0000    0     1.008   -1.787111   -5.739287   16.271891
  66 C     6.0000    0    12.011   -0.798674   -3.989288   12.730424
  67 C     6.0000    0    12.011    1.839111   -1.124184   10.858717
  68 C     6.0000    0    12.011    1.248355   -2.257826   13.195144
  69 C     6.0000    0    12.011    2.621301   -1.605085   15.341266
  70 H     1.0000    0     1.008    2.186866   -2.462320   17.152389
  71 C     6.0000    0    12.011    4.553097    0.144216   15.125950
  72 H     1.0000    0     1.008    5.638815    0.674487   16.780779
  73 C     6.0000    0    12.011    5.132256    1.229499   12.787170
  74 H     1.0000    0     1.008    6.667466    2.581660   12.658024
  75 C     6.0000    0    12.011    3.794087    0.613218   10.624113
  76 H     1.0000    0     1.008    4.270163    1.450939    8.817468
  77 H     1.0000    0     1.008   -0.369601    3.124381   -6.922921
  78 H     1.0000    0     1.008   -0.203600    2.522943    7.189059
  79 H     1.0000    0     1.008   -5.723924  -12.253453   -0.398131
  80 N     7.0000    0    14.007  -10.408240   -7.732421   -0.128084
  81 N     7.0000    0    14.007   11.981202   -5.511479   -0.421961
  82 H     1.0000    0     1.008    8.270786  -10.866615   -0.581681

--------------------------------
INTERNAL COORDINATES (ANGSTROEM)
--------------------------------
 C      0   0   0     0.000000000000     0.00000000     0.00000000
 C      1   0   0     1.399605624950     0.00000000     0.00000000
 C      1   2   0     1.397712173256   121.17565681     0.00000000
 C      3   1   2     1.376067918123   118.03506770     0.00000000
 C      4   3   1     1.398709230494   121.07721413   359.97466522
 C      2   1   3     1.382754050482   120.22371190     0.00000000
 C      4   3   1     1.513878157199   128.06498971   180.13710132
 C      7   4   3     1.513761535351   101.38937257   179.85418652
 C      8   7   4     1.398721408302   110.85453527     0.00000000
 C      9   8   7     1.388993139521   120.78002003   179.96196137
 H     10   9   8     1.084148092685   121.12947053   180.00238592
 C     10   9   8     1.382735688659   118.72572870     0.00000000
 C     12  10   9     1.399616783481   120.21132101     0.00000000
 C      8   7   4     1.375990335272   128.09757407   179.96100218
 H     14   8   7     1.084239014753   121.66896138     0.03688883
 H      3   1   2     1.084345051452   120.28684154   180.00527937
 H      6   2   1     1.084129693483   120.13800861   179.96243110
 C      7   4   3     3.832024982419   106.01672518   291.01750609
 C     18   7   4     1.394585595153    98.11592582   126.25147249
 C     18   7   4     1.393031601436    22.40826672   304.76395476
 C     20  18   7     1.376908805522   118.37897202   359.25475980
 C     21  20  18     1.397249418037   121.51917261   358.84659461
 C     19  18   7     1.385762785022   120.70123672     0.78310967
 C      7   4   3     1.515793031915   113.34618865    57.43940758
 C     24   7   4     1.397124665989   110.66256249   237.34414552
 C     25  24   7     1.388046575265   119.91582602   179.77531783
 H     26  25  24     1.084625307939   121.00083581   180.32566576
 C     26  25  24     1.385795324833   118.97181246   359.03976052
 C     24   7   4     1.376758001856   127.83214641    57.22499517
 H     29  24   7     1.084703407313   121.57810468     1.37287160
 N     18   7   4     1.406269925419   141.88943607   308.10568341
 H     20  18   7     1.084663922545   120.06556265   179.49828132
 H     23  19  18     1.084601977808   120.02051082   180.13143357
 C     31  18   7     1.385965249672   125.36393727    53.13251473
 C     34  31  18     1.389953731842   129.35302920     1.97965944
 H     35  34  31     1.083683694258   121.56049874   359.13133757
 C     35  34  31     1.384881312311   117.55929924   178.69314889
 H     37  35  34     1.084747840143   119.06985435   180.03088815
 C     37  35  34     1.398449287728   121.51110299   359.82637867
 H     39  37  35     1.084318676439   119.49426685   179.90396451
 C     39  37  35     1.383845689416   120.63178580   359.52865628
 H     41  39  37     1.084974327778   120.59564540   180.70030417
 C     41  39  37     1.391700725455   118.97924060     0.41695531
 C     29  24   7     1.393035539908   118.39623331   181.24292492
 C      1   2   3     1.425681603937   119.35651002   180.01694594
 C     13  12  10     1.425800379165   119.35892251   180.03339135
 C     31  18   7     1.385393627996   125.99592313   233.23830368
 C     47  31  18     1.409348128245   108.95013862   179.89676184
 C     48  47  31     1.391666945408   119.64287556   180.81456693
 H     49  48  47     1.084972327306   120.42650907   180.00212391
 C     49  48  47     1.383797866312   118.97597839     0.27411986
 H     51  49  48     1.084288895725   119.87379485   180.06389549
 C     51  49  48     1.398392224498   120.62795319     0.41959000
 H     53  51  49     1.084733691101   119.39154595   179.36340604
 C     53  51  49     1.384887714155   121.51885502   359.52874783
 H     55  53  51     1.083530315295   120.94151135   179.39484545
 N     44  29  24     1.406213448299   119.46273554   178.21304047
 C     57  44  29     1.386037787419   125.33618697   305.62238253
 C     58  57  44     1.389902571435   129.34106591   358.12913283
 H     59  58  57     1.083682638804   121.56643873     0.87683003
 C     59  58  57     1.384900836120   117.56255437   181.30841143
 H     61  59  58     1.084749708341   119.06876172   179.99332868
 C     61  59  58     1.398442639347   121.50457715     0.19306760
 H     63  61  59     1.084306677147   119.50026392   180.09259220
 C     63  61  59     1.383835073032   120.63354612     0.47107714
 H     65  63  61     1.084972748639   120.59404139   179.27974455
 C     65  63  61     1.391755859883   118.98546242   359.57523430
 C     57  44  29     1.385391858837   126.02972602   125.67197026
 C     68  57  44     1.409344205645   108.95824663   179.95471683
 C     69  68  57     1.391735421713   119.63232195   179.24046970
 H     70  69  68     1.084975004610   120.42702773   179.98223732
 C     70  69  68     1.383800759984   118.97847428   359.71628746
 H     72  70  69     1.084288063705   119.87160044   179.92331406
 C     72  70  69     1.398385422138   120.63122675   359.56720301
 H     74  72  70     1.084734365952   119.39384966   180.65583917
 C     74  72  70     1.384920053103   121.51465363     0.47948474
 H     76  74  72     1.083507696319   120.93305544   180.61682006
 H     19  18   7     1.083966850140   119.03064022   181.70363958
 H     28  26  25     1.083927346727   120.27298727   182.01648814
 H      2   1   3     1.083471652559   119.26905158   179.98933445
 N     45   1   2     1.152226380413   179.96968051   313.22701887
 N     46  13  12     1.152183349417   179.97613588   155.46288756
 H     12  10   9     1.083425064197   120.52311968   180.01563515

---------------------------
INTERNAL COORDINATES (A.U.)
---------------------------
 C      0   0   0     0.000000000000     0.00000000     0.00000000
 C      1   0   0     2.644871326651     0.00000000     0.00000000
 C      1   2   0     2.641293221502   121.17565681     0.00000000
 C      3   1   2     2.600391506927   118.03506770     0.00000000
 C      4   3   1     2.643177386621   121.07721413   359.97466522
 C      2   1   3     2.613026465981   120.22371190     0.00000000
 C      4   3   1     2.860815117232   128.06498971   180.13710132
 C      7   4   3     2.860594733877   101.38937257   179.85418652
 C      8   7   4     2.643200399344   110.85453527     0.00000000
 C      9   8   7     2.624816635591   120.78002003   179.96196137
 H     10   9   8     2.048742983789   121.12947053   180.00238592
 C     10   9   8     2.612991767164   118.72572870     0.00000000
 C     12  10   9     2.644892413219   120.21132101     0.00000000
 C      8   7   4     2.600244896586   128.09757407   179.96100218
 H     14   8   7     2.048914801595   121.66896138     0.03688883
 H      3   1   2     2.049115181918   120.28684154   180.00527937
 H      6   2   1     2.048708214334   120.13800861   179.96243110
 C      7   4   3     7.241477755115   106.01672518   291.01750609
 C     18   7   4     2.635384845151    98.11592582   126.25147249
 C     18   7   4     2.632448222611    22.40826672   304.76395476
 C     20  18   7     2.601980553822   118.37897202   359.25475980
 C     21  20  18     2.640418740871   121.51917261   358.84659461
 C     19  18   7     2.618712150272   120.70123672     0.78310967
 C      7   4   3     2.864433706026   113.34618865    57.43940758
 C     24   7   4     2.640182993665   110.66256249   237.34414552
 C     25  24   7     2.623027888378   119.91582602   179.77531783
 H     26  25  24     2.049644789925   121.00083581   180.32566576
 C     26  25  24     2.618773641602   118.97181246   359.03976052
 C     24   7   4     2.601695576193   127.83214641    57.22499517
 H     29  24   7     2.049792376353   121.57810468     1.37287160
 N     18   7   4     2.657465029412   141.88943607   308.10568341
 H     20  18   7     2.049717760956   120.06556265   179.49828132
 H     23  19  18     2.049600702366   120.02051082   180.13143357
 C     31  18   7     2.619094753013   125.36393727    53.13251473
 C     34  31  18     2.626631892003   129.35302920     1.97965944
 H     35  34  31     2.047865397944   121.56049874   359.13133757
 C     35  34  31     2.617046408253   117.55929924   178.69314889
 H     37  35  34     2.049876342232   119.06985435   180.03088815
 C     37  35  34     2.642686165983   121.51110299   359.82637867
 H     39  37  35     2.049065340367   119.49426685   179.90396451
 C     39  37  35     2.615089364604   120.63178580   359.52865628
 H     41  39  37     2.050304341835   120.59564540   180.70030417
 C     41  39  37     2.629933231490   118.97924060     0.41695531
 C     29  24   7     2.632455665245   118.39623331   181.24292492
 C      1   2   3     2.694147785611   119.35651002   180.01694594
 C     13  12  10     2.694372238263   119.35892251   180.03339135
 C     31  18   7     2.618014544592   125.99592313   233.23830368
 C     47  31  18     2.663281989737   108.95013862   179.89676184
 C     48  47  31     2.629869396452   119.64287556   180.81456693
 H     49  48  47     2.050300561492   120.42650907   180.00212391
 C     49  48  47     2.614998992034   118.97597839     0.27411986
 H     51  49  48     2.049009062971   119.87379485   180.06389549
 C     51  49  48     2.642578332106   120.62795319     0.41959000
 H     53  51  49     2.049849604419   119.39154595   179.36340604
 C     53  51  49     2.617058505986   121.51885502   359.52874783
 H     55  53  51     2.047575553709   120.94151135   179.39484545
 N     44  29  24     2.657358303122   119.46273554   178.21304047
 C     57  44  29     2.619231829488   125.33618697   305.62238253
 C     58  57  44     2.626535212846   129.34106591   358.12913283
 H     59  58  57     2.047863403425   121.56643873     0.87683003
 C     59  58  57     2.617083302904   117.56255437   181.30841143
 H     61  59  58     2.049879872615   119.06876172   179.99332868
 C     61  59  58     2.642673602364   121.50457715     0.19306760
 H     63  61  59     2.049042664990   119.50026392   180.09259220
 C     63  61  59     2.615069302545   120.63354612     0.47107714
 H     65  63  61     2.050301357695   120.59404139   179.27974455
 C     65  63  61     2.630037420460   118.98546242   359.57523430
 C     57  44  29     2.618011201366   126.02972602   125.67197026
 C     68  57  44     2.663274577097   108.95824663   179.95471683
 C     69  68  57     2.629998797916   119.63232195   179.24046970
 H     70  69  68     2.050305620862   120.42702773   179.98223732
 C     70  69  68     2.615004460281   118.97847428   359.71628746
 H     72  70  69     2.049007490681   119.87160044   179.92331406
 C     72  70  69     2.642565477508   120.63122675   359.56720301
 H     74  72  70     2.049850879703   119.39384966   180.65583917
 C     74  72  70     2.617119617740   121.51465363     0.47948474
 H     76  74  72     2.047532810039   120.93305544   180.61682006
 H     19  18   7     2.048400485014   119.03064022   181.70363958
 H     28  26  25     2.048325834381   120.27298727   182.01648814
 H      2   1   3     2.047464697204   119.26905158   179.98933445
 N     45   1   2     2.177392303259   179.96968051   313.22701887
 N     46  13  12     2.177310986463   179.97613588   155.46288756
 H     12  10   9     2.047376657959   120.52311968   180.01563515

---------------------
BASIS SET INFORMATION
---------------------
There are 3 groups of distinct atoms

 Group   1 Type C   : 11s6p2d1f contracted to 5s3p2d1f pattern {62111/411/11/1}
 Group   2 Type H   : 5s1p contracted to 3s1p pattern {311/1}
 Group   3 Type N   : 11s6p2d1f contracted to 5s3p2d1f pattern {62111/411/11/1}

Atom   0C    basis set group =>   1
Atom   1C    basis set group =>   1
Atom   2C    basis set group =>   1
Atom   3C    basis set group =>   1
Atom   4C    basis set group =>   1
Atom   5C    basis set group =>   1
Atom   6C    basis set group =>   1
Atom   7C    basis set group =>   1
Atom   8C    basis set group =>   1
Atom   9C    basis set group =>   1
Atom  10H    basis set group =>   2
Atom  11C    basis set group =>   1
Atom  12C    basis set group =>   1
Atom  13C    basis set group =>   1
Atom  14H    basis set group =>   2
Atom  15H    basis set group =>   2
Atom  16H    basis set group =>   2
Atom  17C    basis set group =>   1
Atom  18C    basis set group =>   1
Atom  19C    basis set group =>   1
Atom  20C    basis set group =>   1
Atom  21C    basis set group =>   1
Atom  22C    basis set group =>   1
Atom  23C    basis set group =>   1
Atom  24C    basis set group =>   1
Atom  25C    basis set group =>   1
Atom  26H    basis set group =>   2
Atom  27C    basis set group =>   1
Atom  28C    basis set group =>   1
Atom  29H    basis set group =>   2
Atom  30N    basis set group =>   3
Atom  31H    basis set group =>   2
Atom  32H    basis set group =>   2
Atom  33C    basis set group =>   1
Atom  34C    basis set group =>   1
Atom  35H    basis set group =>   2
Atom  36C    basis set group =>   1
Atom  37H    basis set group =>   2
Atom  38C    basis set group =>   1
Atom  39H    basis set group =>   2
Atom  40C    basis set group =>   1
Atom  41H    basis set group =>   2
Atom  42C    basis set group =>   1
Atom  43C    basis set group =>   1
Atom  44C    basis set group =>   1
Atom  45C    basis set group =>   1
Atom  46C    basis set group =>   1
Atom  47C    basis set group =>   1
Atom  48C    basis set group =>   1
Atom  49H    basis set group =>   2
Atom  50C    basis set group =>   1
Atom  51H    basis set group =>   2
Atom  52C    basis set group =>   1
Atom  53H    basis set group =>   2
Atom  54C    basis set group =>   1
Atom  55H    basis set group =>   2
Atom  56N    basis set group =>   3
Atom  57C    basis set group =>   1
Atom  58C    basis set group =>   1
Atom  59H    basis set group =>   2
Atom  60C    basis set group =>   1
Atom  61H    basis set group =>   2
Atom  62C    basis set group =>   1
Atom  63H    basis set group =>   2
Atom  64C    basis set group =>   1
Atom  65H    basis set group =>   2
Atom  66C    basis set group =>   1
Atom  67C    basis set group =>   1
Atom  68C    basis set group =>   1
Atom  69C    basis set group =>   1
Atom  70H    basis set group =>   2
Atom  71C    basis set group =>   1
Atom  72H    basis set group =>   2
Atom  73C    basis set group =>   1
Atom  74H    basis set group =>   2
Atom  75C    basis set group =>   1
Atom  76H    basis set group =>   2
Atom  77H    basis set group =>   2
Atom  78H    basis set group =>   2
Atom  79H    basis set group =>   2
Atom  80N    basis set group =>   3
Atom  81N    basis set group =>   3
Atom  82H    basis set group =>   2
---------------------------------
AUXILIARY/J BASIS SET INFORMATION
---------------------------------
There are 3 groups of distinct atoms

 Group   1 Type C   : 12s5p4d2f1g contracted to 6s4p3d1f1g pattern {711111/2111/211/2/1}
 Group   2 Type H   : 5s2p1d contracted to 3s1p1d pattern {311/2/1}
 Group   3 Type N   : 12s5p4d2f1g contracted to 6s4p3d1f1g pattern {711111/2111/211/2/1}

Atom   0C    basis set group =>   1
Atom   1C    basis set group =>   1
Atom   2C    basis set group =>   1
Atom   3C    basis set group =>   1
Atom   4C    basis set group =>   1
Atom   5C    basis set group =>   1
Atom   6C    basis set group =>   1
Atom   7C    basis set group =>   1
Atom   8C    basis set group =>   1
Atom   9C    basis set group =>   1
Atom  10H    basis set group =>   2
Atom  11C    basis set group =>   1
Atom  12C    basis set group =>   1
Atom  13C    basis set group =>   1
Atom  14H    basis set group =>   2
Atom  15H    basis set group =>   2
Atom  16H    basis set group =>   2
Atom  17C    basis set group =>   1
Atom  18C    basis set group =>   1
Atom  19C    basis set group =>   1
Atom  20C    basis set group =>   1
Atom  21C    basis set group =>   1
Atom  22C    basis set group =>   1
Atom  23C    basis set group =>   1
Atom  24C    basis set group =>   1
Atom  25C    basis set group =>   1
Atom  26H    basis set group =>   2
Atom  27C    basis set group =>   1
Atom  28C    basis set group =>   1
Atom  29H    basis set group =>   2
Atom  30N    basis set group =>   3
Atom  31H    basis set group =>   2
Atom  32H    basis set group =>   2
Atom  33C    basis set group =>   1
Atom  34C    basis set group =>   1
Atom  35H    basis set group =>   2
Atom  36C    basis set group =>   1
Atom  37H    basis set group =>   2
Atom  38C    basis set group =>   1
Atom  39H    basis set group =>   2
Atom  40C    basis set group =>   1
Atom  41H    basis set group =>   2
Atom  42C    basis set group =>   1
Atom  43C    basis set group =>   1
Atom  44C    basis set group =>   1
Atom  45C    basis set group =>   1
Atom  46C    basis set group =>   1
Atom  47C    basis set group =>   1
Atom  48C    basis set group =>   1
Atom  49H    basis set group =>   2
Atom  50C    basis set group =>   1
Atom  51H    basis set group =>   2
Atom  52C    basis set group =>   1
Atom  53H    basis set group =>   2
Atom  54C    basis set group =>   1
Atom  55H    basis set group =>   2
Atom  56N    basis set group =>   3
Atom  57C    basis set group =>   1
Atom  58C    basis set group =>   1
Atom  59H    basis set group =>   2
Atom  60C    basis set group =>   1
Atom  61H    basis set group =>   2
Atom  62C    basis set group =>   1
Atom  63H    basis set group =>   2
Atom  64C    basis set group =>   1
Atom  65H    basis set group =>   2
Atom  66C    basis set group =>   1
Atom  67C    basis set group =>   1
Atom  68C    basis set group =>   1
Atom  69C    basis set group =>   1
Atom  70H    basis set group =>   2
Atom  71C    basis set group =>   1
Atom  72H    basis set group =>   2
Atom  73C    basis set group =>   1
Atom  74H    basis set group =>   2
Atom  75C    basis set group =>   1
Atom  76H    basis set group =>   2
Atom  77H    basis set group =>   2
Atom  78H    basis set group =>   2
Atom  79H    basis set group =>   2
Atom  80N    basis set group =>   3
Atom  81N    basis set group =>   3
Atom  82H    basis set group =>   2


           ************************************************************
           *        Program running with 16 parallel MPI-processes    *
           *              working on a common directory               *
           ************************************************************
------------------------------------------------------------------------------
                             ORCA STARTUP CALCULATIONS
                           -- RI-GTO INTEGRALS CHOSEN --
------------------------------------------------------------------------------
------------------------------------------------------------------------------
                   ___                                                        
                  /   \      - P O W E R E D   B Y -                         
                 /     \                                                     
                 |  |  |   _    _      __       _____    __    __             
                 |  |  |  | |  | |    /  \     |  _  \  |  |  /  |          
                  \  \/   | |  | |   /    \    | | | |  |  | /  /          
                 / \  \   | |__| |  /  /\  \   | |_| |  |  |/  /          
                |  |  |   |  __  | /  /__\  \  |    /   |      \           
                |  |  |   | |  | | |   __   |  |    \   |  |\   \          
                \     /   | |  | | |  |  |  |  | |\  \  |  | \   \       
                 \___/    |_|  |_| |__|  |__|  |_| \__\ |__|  \__/        
                                                                              
                      - O R C A' S   B I G   F R I E N D -                    
                                      &                                       
                       - I N T E G R A L  F E E D E R -                       
                                                                              
 v1 FN, 2020, v2 2021, v3 2022-2024                                           
------------------------------------------------------------------------------


----------------------
SHARK INTEGRAL PACKAGE
----------------------

Number of atoms                             ...     83
Number of basis functions                   ...   1873
Number of shells                            ...    717
Maximum angular momentum                    ...      3
Integral batch strategy                     ... SHARK/LIBINT Hybrid
RI-J (if used) integral strategy            ... SPLIT-RIJ (Revised 2003 algorithm where possible)
Printlevel                                  ...      1
Contraction scheme used                     ... SEGMENTED contraction
Prescreening option                         ... SCHWARTZ
   Thresh                                   ... 2.500e-11
   Tcut                                     ... 2.500e-12
   Tpresel                                  ... 2.500e-12 
Coulomb Range Separation                    ... NOT USED
Exchange Range Separation                   ... NOT USED
Multipole approximations                    ... NOT USED
Finite Nucleus Model                        ... NOT USED
CABS basis                                  ... NOT available
Auxiliary Coulomb fitting basis             ... AVAILABLE
   # of basis functions in Aux-J            ...   3003
   # of shells in Aux-J                     ...    965
   Maximum angular momentum in Aux-J        ...      4
Auxiliary J/K fitting basis                 ... NOT available
Auxiliary Correlation fitting basis         ... NOT available
Auxiliary 'external' fitting basis          ... NOT available

Checking pre-screening integrals            ... done (  0.0 sec) Dimension = 717
Check shell pair data                       ... done (  0.0 sec)
Shell pair information
Shell pair cut-off parameter TPreSel        ...   2.5e-12
Total number of shell pairs                 ...    257403
Shell pairs after pre-screening             ...    123427
Total number of primitive shell pairs       ...    805840
Primitive shell pairs kept                  ...    234930
          la=0 lb=0:  29482 shell pairs
          la=1 lb=0:  36341 shell pairs
          la=1 lb=1:  11102 shell pairs
          la=2 lb=0:  17346 shell pairs
          la=2 lb=1:  10927 shell pairs
          la=2 lb=2:   2547 shell pairs
          la=3 lb=0:   7902 shell pairs
          la=3 lb=1:   5079 shell pairs
          la=3 lb=2:   2200 shell pairs
          la=3 lb=3:    501 shell pairs

Calculating one electron integrals          ... done (  0.2 sec)
Calculating RI/J V-Matrix + Cholesky decomp.... done (  0.2 sec)
Calculating Nuclear repulsion               ... done (  0.0 sec) ENN=   6559.499461564075 Eh

Diagonalization of the overlap matrix:
Smallest eigenvalue                        ... 2.203e-06
Time for diagonalization                   ...    0.156 sec
Threshold for overlap eigenvalues          ... 1.000e-07
Number of eigenvalues below threshold      ... 0
Time for construction of square roots      ...    0.195 sec
Total time needed                          ...    0.380 sec

-------------------
DFT GRID GENERATION
-------------------

General Integration Accuracy     IntAcc      ... 4.388
Radial Grid Type                 RadialGrid  ... OptM3 with GC (2021)
Angular Grid (max. ang.)         AngularGrid ... 4 (Lebedev-302)
Angular grid pruning method      GridPruning ... 4 (adaptive)
Weight generation scheme         WeightScheme... mBecke (2022)
Basis function cutoff            BFCut       ... 1.0000e-11
Integration weight cutoff        WCut        ... 1.0000e-14
Partially contracted basis set               ... off
Rotationally invariant grid construction     ... off
Angular grids for H and He will be reduced by one unit

Total number of grid points                  ...   414610
Total number of batches                      ...     6519
Average number of points per batch           ...       63
Average number of grid points per atom       ...     4995

--------------------
COSX GRID GENERATION
--------------------

GRIDX 1
-------
General Integration Accuracy     IntAcc      ... 3.816
Radial Grid Type                 RadialGrid  ... OptM3 with GC (2021)
Angular Grid (max. ang.)         AngularGrid ... 1 (Lebedev-50)
Angular grid pruning method      GridPruning ... 4 (adaptive)
Weight generation scheme         WeightScheme... mBecke (2022)
Basis function cutoff            BFCut       ... 1.0000e-11
Integration weight cutoff        WCut        ... 1.0000e-14
Partially contracted basis set               ... on
Rotationally invariant grid construction     ... off
Angular grids for H and He will be reduced by one unit

Total number of grid points                  ...    52437
Total number of batches                      ...      444
Average number of points per batch           ...      118
Average number of grid points per atom       ...      632
UseSFitting                                  ... on

GRIDX 2
-------
General Integration Accuracy     IntAcc      ... 4.020
Radial Grid Type                 RadialGrid  ... OptM3 with GC (2021)
Angular Grid (max. ang.)         AngularGrid ... 2 (Lebedev-110)
Angular grid pruning method      GridPruning ... 4 (adaptive)
Weight generation scheme         WeightScheme... mBecke (2022)
Basis function cutoff            BFCut       ... 1.0000e-11
Integration weight cutoff        WCut        ... 1.0000e-14
Partially contracted basis set               ... on
Rotationally invariant grid construction     ... off
Angular grids for H and He will be reduced by one unit

Total number of grid points                  ...   114756
Total number of batches                      ...      940
Average number of points per batch           ...      122
Average number of grid points per atom       ...     1383
UseSFitting                                  ... on

GRIDX 3
-------
General Integration Accuracy     IntAcc      ... 4.338
Radial Grid Type                 RadialGrid  ... OptM3 with GC (2021)
Angular Grid (max. ang.)         AngularGrid ... 3 (Lebedev-194)
Angular grid pruning method      GridPruning ... 4 (adaptive)
Weight generation scheme         WeightScheme... mBecke (2022)
Basis function cutoff            BFCut       ... 1.0000e-11
Integration weight cutoff        WCut        ... 1.0000e-14
Partially contracted basis set               ... on
Rotationally invariant grid construction     ... off
Angular grids for H and He will be reduced by one unit

Total number of grid points                  ...   250644
Total number of batches                      ...     2003
Average number of points per batch           ...      125
Average number of grid points per atom       ...     3020
UseSFitting                                  ... on
Initializing property integral containers    ... done (  0.0 sec)

SHARK setup successfully completed in   7.3 seconds

Maximum memory used throughout the entire STARTUP-calculation: 254.5 MB


           ************************************************************
           *        Program running with 16 parallel MPI-processes    *
           *              working on a common directory               *
           ************************************************************
-------------------------------------------------------------------------------
                                 ORCA GUESS
                   Start orbitals & Density for SCF / CASSCF
-------------------------------------------------------------------------------

------------
SCF SETTINGS
------------
Hamiltonian:
 Density Functional     Method          .... DFT(GTOs)
 Exchange Functional    Exchange        .... PBE
   PBE kappa parameter   XKappa         ....  0.804000
   PBE mue parameter    XMuePBE         ....  0.219520
 Correlation Functional Correlation     .... PBE
   PBE beta parameter  CBetaPBE         ....  0.066725
 LDA part of GGA corr.  LDAOpt          .... PW91-LDA
 Gradients option       PostSCFGGA      .... off
 Hybrid DFT is turned on
   Fraction HF Exchange ScalHFX         ....  0.250000
   Scaling of DF-GGA-X  ScalDFX         ....  0.750000
   Scaling of DF-GGA-C  ScalDFC         ....  1.000000
   Scaling of DF-LDA-C  ScalLDAC        ....  1.000000
   Perturbative correction              ....  0.000000
   NL short-range parameter             ....  6.900000
 RI-approximation to the Coulomb term is turned on
   Number of AuxJ basis functions       .... 3003
   RIJ-COSX (HFX calculated with COS-X)).... on


General Settings:
 Integral files         IntName         .... BSF-2_SOC_nroots-10_pbe0_tzvp_cpcm-toluene
 Hartree-Fock type      HFTyp           .... RHF
 Total Charge           Charge          ....    0
 Multiplicity           Mult            ....    1
 Number of Electrons    NEL             ....  362
 Basis Dimension        Dim             .... 1873
 Nuclear Repulsion      ENuc            ....   6559.4994615641 Eh

Convergence Acceleration:
 AO-DIIS                CNVDIIS         .... on
   Start iteration      DIISMaxIt       ....    12
   Startup error        DIISStart       ....  0.200000
   # of expansion vecs  DIISMaxEq       ....     5
   Bias factor          DIISBfac        ....   1.050
   Max. coefficient     DIISMaxC        ....  10.000
 MO-DIIS                CNVKDIIS        .... off
 Trust-Rad. Augm. Hess. CNVTRAH         .... auto
   Auto Start mean grad. ratio tolernc. ....  1.125000
   Auto Start start iteration           ....    50
   Auto Start num. interpolation iter.  ....    10
   Max. Number of Micro iterations      ....    24
   Max. Number of Macro iterations      .... Maxiter - #DIIS iter
   Number of Davidson start vectors     ....     2
   Converg. threshold    (grad. norm)   ....   1.000e-05
   Grad. Scal. Fac. for Micro threshold ....   0.100
   Minimum threshold for Micro iter.    ....   1.000e-02
   NR start threshold (gradient norm)   ....   1.000e-04
   Initial trust radius                 ....   0.400
   Minimum AH scaling param. (alpha)    ....   1.000
   Maximum AH scaling param. (alpha)    .... 1000.000
   Quad. conv. algorithm                .... NR
   White noise on init. David. guess    .... on
   Maximum white noise                  ....   0.010
   Pseudo random numbers                .... off
   Inactive MOs                         .... canonical
   Orbital update algorithm             .... Taylor
   Preconditioner                       .... Diag
   Full preconditioner red. dimension   ....   250
 SOSCF                  CNVSOSCF        .... on
   Start iteration      SOSCFMaxIt      ....   150
   Startup grad/error   SOSCFStart      ....  0.003300
   Hessian update       SOSCFHessUp     .... L-BFGS
 Level Shifting         CNVShift        .... on
   Level shift para.    LevelShift      ....    0.2500
   Turn off err/grad.   ShiftErr        ....    0.0010
 Zerner damping         CNVZerner       .... off
 Static damping         CNVDamp         .... on
   Fraction old density DampFac         ....    0.7000
   Max. Damping (<1)    DampMax         ....    0.9800
   Min. Damping (>=0)   DampMin         ....    0.0000
   Turn off err/grad.   DampErr         ....    0.1000

SCF Procedure:
 Maximum # iterations   MaxIter         ....   125
 SCF integral mode      SCFMode         .... Direct
   Integral package                     .... SHARK and LIBINT hybrid scheme
 Reset frequency        DirectResetFreq ....    20
 Integral Threshold     Thresh          ....  2.500e-11 Eh
 Primitive CutOff       TCut            ....  2.500e-12 Eh

Convergence Tolerance:
 Convergence Check Mode ConvCheckMode   .... Total+1el-Energy
 Convergence forced     ConvForced      .... 1
 Energy Change          TolE            ....  1.000e-08 Eh
 1-El. energy change                    ....  1.000e-05 Eh
 Orbital Gradient       TolG            ....  1.000e-05
 Orbital Rotation angle TolX            ....  1.000e-05
 DIIS Error             TolErr          ....  5.000e-07

------------------------------
INITIAL GUESS: MODEL POTENTIAL
------------------------------
Loading Hartree-Fock densities                     ... done
Calculating cut-offs                               ... done
Initializing the effective Hamiltonian             ... done
Setting up the integral package (SHARK)            ... done
Starting the Coulomb interaction                   ... done (   0.7 sec)
Making the grid                                    ... done (   0.4 sec)
Mapping shells                                     ... done
Starting the XC term evaluation                    ... done (   0.4 sec)
  promolecular density results
     # of electrons  =    361.990730633
     EX              =   -295.535928216
     EC              =    -12.236026817
     EX+EC           =   -307.771955033
Transforming the Hamiltonian                       ... done (   0.1 sec)
Diagonalizing the Hamiltonian                      ... done (   0.2 sec)
Back transforming the eigenvectors                 ... done (   0.2 sec)
Now organizing SCF variables                       ... done
                      ------------------
                      INITIAL GUESS DONE (   2.5 sec)
                      ------------------
             **** ENERGY FILE WAS UPDATED (BSF-2_SOC_nroots-10_pbe0_tzvp_cpcm-toluene.en.tmp) ****
Finished Guess after   3.7 sec
Maximum memory used throughout the entire GUESS-calculation: 219.1 MB


           ************************************************************
           *        Program running with 16 parallel MPI-processes    *
           *              working on a common directory               *
           ************************************************************

-------------------------------------------------------------------------------------------
                                      ORCA LEAN-SCF
                              memory conserving SCF solver
-------------------------------------------------------------------------------------------

--------------------
CPCM SOLVATION MODEL
--------------------
CPCM parameters:
  Epsilon                                         ...       2.3870
  Refrac                                          ...       1.4961
  Rsolv                                           ...       1.3000
  Surface type                                    ... GAUSSIAN VDW
  Discretization scheme                           ... Constant charge density
    Threshold for H atoms                         ...       5.0000 (charges/Ang^2)
    Threshold for non-H atoms                     ...       5.0000 (charges/Ang^2)
  Epsilon function type                           ...         CPCM
Solvent:                                          ... TOLUENE
Radii:
  Scheme                                          ... Element-dependent radii
  Radius for C  used is    3.8550 Bohr (=   2.0400 Ang.)
  Radius for H  used is    2.4944 Bohr (=   1.3200 Ang.)
  Radius for N  used is    3.5149 Bohr (=   1.8600 Ang.)
Calculating surface                               ...        done! (  0.0s)
Cavity surface points                             ...         7510
Cavity Volume                                     ...    5434.2337
Cavity Surface-area                               ...    2577.8605
Calculating surface distance matrix               ...        done! (  0.3s)
Performing Cholesky decomposition & store         ...        done! (  1.1s)
Overall time for CPCM initialization              ...                 1.4s

----------------------------------------D-I-I-S--------------------------------------------
Iteration    Energy (Eh)           Delta-E    RMSDP     MaxDP     DIISErr   Damp  Time(sec)
-------------------------------------------------------------------------------------------
               ***  Starting incremental Fock matrix formation  ***
    1    -2176.5954973815769335     0.00e+00  7.63e-04  1.08e-01  2.55e-01  0.700  23.8
    2    -2177.0217667278830049    -4.26e-01  6.44e-04  6.53e-02  1.02e-01  0.700  14.7
                               ***Turning on AO-DIIS***
    3    -2177.2169285643340118    -1.95e-01  3.26e-04  5.92e-02  3.56e-02  0.700  13.3
    4    -2177.3332282347037108    -1.16e-01  7.06e-04  2.07e-01  2.48e-02  0.000  12.8
    5    -2177.5802319161557534    -2.47e-01  1.18e-04  2.02e-02  1.06e-02  0.000  13.3
                              *** Initializing SOSCF ***
---------------------------------------S-O-S-C-F--------------------------------------
Iteration    Energy (Eh)           Delta-E    RMSDP     MaxDP     MaxGrad    Time(sec)
--------------------------------------------------------------------------------------
    6    -2177.5814080116597324    -1.18e-03  4.39e-05  4.44e-03  1.33e-03    12.7
               *** Restarting incremental Fock matrix formation ***
    7    -2177.5814880308735155    -8.00e-05  1.17e-04  1.34e-02  3.70e-04    23.5
    8    -2177.5814752067362861     1.28e-05  1.73e-05  1.98e-03  5.69e-04    17.7
    9    -2177.5814984436674422    -2.32e-05  1.72e-05  3.52e-03  4.86e-05    15.3
   10    -2177.5814981194380380     3.24e-07  3.27e-06  2.11e-03  7.33e-05    15.1
   11    -2177.5814986353580025    -5.16e-07  5.56e-06  1.78e-03  1.42e-05    12.1
   12    -2177.5814986726090865    -3.73e-08  4.37e-06  4.13e-03  1.70e-05    12.9
   13    -2177.5814986362438503     3.64e-08  9.89e-06  9.48e-03  4.31e-06    11.8
   14    -2177.5814985568704287     7.94e-08  2.43e-06  1.74e-03  6.90e-06    12.1
   15    -2177.5814987959729478    -2.39e-07  4.79e-06  2.03e-03  7.76e-07    11.1
                  *** Gradient check signals convergence ***

               *****************************************************
               *                     SUCCESS                       *
               *           SCF CONVERGED AFTER  15 CYCLES          *
               *****************************************************

Recomputing exchange energy using gridx3       ... done (   32.671 sec)
Old exchange energy                            :    -75.334275782 Eh
New exchange energy                            :    -75.334241841 Eh
Exchange energy change after final integration :      0.000033941 Eh
Total energy after final integration           :  -2177.581464855 Eh
             **** ENERGY FILE WAS UPDATED (BSF-2_SOC_nroots-10_pbe0_tzvp_cpcm-toluene.en.tmp) ****

----------------
TOTAL SCF ENERGY
----------------

Total Energy       :      -2177.58146485494535 Eh          -59255.00412 eV

Components:
Nuclear Repulsion  :       6559.49946156407532 Eh          178493.05476 eV
Electronic Energy  :      -8737.05803056827426 Eh         -237747.43586 eV
One Electron Energy:     -16005.29398645130459 Eh         -435526.19110 eV
Two Electron Energy:       7268.23595588302942 Eh          197778.75524 eV
CPCM Dielectric    :         -0.02292979177457 Eh              -0.62395 eV

Virial components:
Potential Energy   :      -4345.00188833376524 Eh         -118233.51226 eV
Kinetic Energy     :       2167.42042347882034 Eh           58978.50813 eV
Virial Ratio       :          2.00468808047855

DFT components:
N(Alpha)           :      181.000148914497 electrons
N(Beta)            :      181.000148914497 electrons
N(Total)           :      362.000297828993 electrons
E(X)               :     -225.392128903770 Eh       
E(C)               :      -12.230991080117 Eh       
E(XC)              :     -237.623119983886 Eh       

CPCM Solvation Model Properties:
Surface-charge          :         -0.04894681013036
Corrected charge        :         -0.00000000000000
Outlying charge corr.   :          0.00005273496949 Eh               0.00143 eV
Free-energy (cav+disp)  :  This term is not implemented in the current solvation scheme

---------------
SCF CONVERGENCE
---------------

  Last Energy change         ...    2.3910e-07  Tolerance :   1.0000e-08
  Last MAX-Density change    ...    2.0342e-03  Tolerance :   1.0000e-07
  Last RMS-Density change    ...    4.7899e-06  Tolerance :   5.0000e-09
  Last DIIS Error            ...    1.3290e-03  Tolerance :   5.0000e-07
  Last Orbital Gradient      ...    7.7639e-07  Tolerance :   1.0000e-05
  Last Orbital Rotation      ...    2.4134e-06  Tolerance :   1.0000e-05


----------------
ORBITAL ENERGIES
----------------

  NO   OCC          E(Eh)            E(eV) 
   0   2.0000     -14.443228      -393.0202 
   1   2.0000     -14.443159      -393.0183 
   2   2.0000     -14.393980      -391.6801 
   3   2.0000     -14.392815      -391.6484 
   4   2.0000     -10.288543      -279.9655 
   5   2.0000     -10.287923      -279.9486 
   6   2.0000     -10.287888      -279.9477 
   7   2.0000     -10.287623      -279.9405 
   8   2.0000     -10.283825      -279.8371 
   9   2.0000     -10.275842      -279.6199 
  10   2.0000     -10.274679      -279.5882 
  11   2.0000     -10.269896      -279.4581 
  12   2.0000     -10.269854      -279.4569 
  13   2.0000     -10.269806      -279.4556 
  14   2.0000     -10.269764      -279.4545 
  15   2.0000     -10.269351      -279.4432 
  16   2.0000     -10.268757      -279.4271 
  17   2.0000     -10.268237      -279.4129 
  18   2.0000     -10.267734      -279.3993 
  19   2.0000     -10.265600      -279.3412 
  20   2.0000     -10.264683      -279.3162 
  21   2.0000     -10.264313      -279.3062 
  22   2.0000     -10.263494      -279.2839 
  23   2.0000     -10.259151      -279.1657 
  24   2.0000     -10.258700      -279.1534 
  25   2.0000     -10.258658      -279.1523 
  26   2.0000     -10.258539      -279.1490 
  27   2.0000     -10.254249      -279.0323 
  28   2.0000     -10.253869      -279.0220 
  29   2.0000     -10.248211      -278.8680 
  30   2.0000     -10.248148      -278.8663 
  31   2.0000     -10.247979      -278.8617 
  32   2.0000     -10.247943      -278.8607 
  33   2.0000     -10.246267      -278.8151 
  34   2.0000     -10.246245      -278.8145 
  35   2.0000     -10.234025      -278.4820 
  36   2.0000     -10.233942      -278.4797 
  37   2.0000     -10.233592      -278.4702 
  38   2.0000     -10.233507      -278.4679 
  39   2.0000     -10.231106      -278.4025 
  40   2.0000     -10.231087      -278.4020 
  41   2.0000     -10.230876      -278.3963 
  42   2.0000     -10.230870      -278.3961 
  43   2.0000     -10.230839      -278.3953 
  44   2.0000     -10.230828      -278.3950 
  45   2.0000     -10.230750      -278.3929 
  46   2.0000     -10.230693      -278.3913 
  47   2.0000     -10.229297      -278.3533 
  48   2.0000     -10.229266      -278.3525 
  49   2.0000     -10.229198      -278.3506 
  50   2.0000     -10.229152      -278.3494 
  51   2.0000     -10.223040      -278.1831 
  52   2.0000     -10.223010      -278.1823 
  53   2.0000     -10.222900      -278.1792 
  54   2.0000     -10.222856      -278.1780 
  55   2.0000      -1.037791       -28.2397 
  56   2.0000      -1.037711       -28.2375 
  57   2.0000      -0.971187       -26.4273 
  58   2.0000      -0.952629       -25.9223 
  59   2.0000      -0.950705       -25.8700 
  60   2.0000      -0.935593       -25.4588 
  61   2.0000      -0.915084       -24.9007 
  62   2.0000      -0.911908       -24.8143 
  63   2.0000      -0.895543       -24.3690 
  64   2.0000      -0.883066       -24.0294 
  65   2.0000      -0.883019       -24.0282 
  66   2.0000      -0.877124       -23.8678 
  67   2.0000      -0.873462       -23.7681 
  68   2.0000      -0.849190       -23.1076 
  69   2.0000      -0.833011       -22.6674 
  70   2.0000      -0.819056       -22.2876 
  71   2.0000      -0.807903       -21.9842 
  72   2.0000      -0.807567       -21.9750 
  73   2.0000      -0.800335       -21.7782 
  74   2.0000      -0.797987       -21.7143 
  75   2.0000      -0.796485       -21.6735 
  76   2.0000      -0.783464       -21.3191 
  77   2.0000      -0.782140       -21.2831 
  78   2.0000      -0.780052       -21.2263 
  79   2.0000      -0.758964       -20.6525 
  80   2.0000      -0.748284       -20.3618 
  81   2.0000      -0.747925       -20.3521 
  82   2.0000      -0.739848       -20.1323 
  83   2.0000      -0.734306       -19.9815 
  84   2.0000      -0.719423       -19.5765 
  85   2.0000      -0.694488       -18.8980 
  86   2.0000      -0.680668       -18.5219 
  87   2.0000      -0.669971       -18.2308 
  88   2.0000      -0.655735       -17.8435 
  89   2.0000      -0.655485       -17.8367 
  90   2.0000      -0.646137       -17.5823 
  91   2.0000      -0.640201       -17.4208 
  92   2.0000      -0.637942       -17.3593 
  93   2.0000      -0.635995       -17.3063 
  94   2.0000      -0.630586       -17.1591 
  95   2.0000      -0.623977       -16.9793 
  96   2.0000      -0.606146       -16.4941 
  97   2.0000      -0.601235       -16.3604 
  98   2.0000      -0.600142       -16.3307 
  99   2.0000      -0.599250       -16.3064 
 100   2.0000      -0.593299       -16.1445 
 101   2.0000      -0.575584       -15.6624 
 102   2.0000      -0.564126       -15.3507 
 103   2.0000      -0.552102       -15.0235 
 104   2.0000      -0.546313       -14.8659 
 105   2.0000      -0.544370       -14.8131 
 106   2.0000      -0.540267       -14.7014 
 107   2.0000      -0.538335       -14.6488 
 108   2.0000      -0.533854       -14.5269 
 109   2.0000      -0.528107       -14.3705 
 110   2.0000      -0.524560       -14.2740 
 111   2.0000      -0.517442       -14.0803 
 112   2.0000      -0.493670       -13.4334 
 113   2.0000      -0.492884       -13.4121 
 114   2.0000      -0.486263       -13.2319 
 115   2.0000      -0.485622       -13.2145 
 116   2.0000      -0.484327       -13.1792 
 117   2.0000      -0.480578       -13.0772 
 118   2.0000      -0.480283       -13.0692 
 119   2.0000      -0.475769       -12.9463 
 120   2.0000      -0.475679       -12.9439 
 121   2.0000      -0.472028       -12.8445 
 122   2.0000      -0.471375       -12.8268 
 123   2.0000      -0.471089       -12.8190 
 124   2.0000      -0.461475       -12.5574 
 125   2.0000      -0.458817       -12.4850 
 126   2.0000      -0.456583       -12.4242 
 127   2.0000      -0.453953       -12.3527 
 128   2.0000      -0.450351       -12.2547 
 129   2.0000      -0.446833       -12.1590 
 130   2.0000      -0.445421       -12.1205 
 131   2.0000      -0.444973       -12.1083 
 132   2.0000      -0.444327       -12.0908 
 133   2.0000      -0.444069       -12.0837 
 134   2.0000      -0.442281       -12.0351 
 135   2.0000      -0.435378       -11.8472 
 136   2.0000      -0.434474       -11.8226 
 137   2.0000      -0.433795       -11.8042 
 138   2.0000      -0.419030       -11.4024 
 139   2.0000      -0.415257       -11.2997 
 140   2.0000      -0.414527       -11.2799 
 141   2.0000      -0.404704       -11.0126 
 142   2.0000      -0.402049       -10.9403 
 143   2.0000      -0.395851       -10.7717 
 144   2.0000      -0.395183       -10.7535 
 145   2.0000      -0.392879       -10.6908 
 146   2.0000      -0.388654       -10.5758 
 147   2.0000      -0.387870       -10.5545 
 148   2.0000      -0.382522       -10.4090 
 149   2.0000      -0.382384       -10.4052 
 150   2.0000      -0.382215       -10.4006 
 151   2.0000      -0.382132       -10.3984 
 152   2.0000      -0.380252       -10.3472 
 153   2.0000      -0.379082       -10.3154 
 154   2.0000      -0.374890       -10.2013 
 155   2.0000      -0.372079       -10.1248 
 156   2.0000      -0.371925       -10.1206 
 157   2.0000      -0.363115        -9.8809 
 158   2.0000      -0.361729        -9.8431 
 159   2.0000      -0.358261        -9.7488 
 160   2.0000      -0.356910        -9.7120 
 161   2.0000      -0.353550        -9.6206 
 162   2.0000      -0.353181        -9.6106 
 163   2.0000      -0.352549        -9.5933 
 164   2.0000      -0.349153        -9.5009 
 165   2.0000      -0.320195        -8.7130 
 166   2.0000      -0.317953        -8.6519 
 167   2.0000      -0.312008        -8.4902 
 168   2.0000      -0.304936        -8.2977 
 169   2.0000      -0.303720        -8.2646 
 170   2.0000      -0.295711        -8.0467 
 171   2.0000      -0.286700        -7.8015 
 172   2.0000      -0.283949        -7.7267 
 173   2.0000      -0.275729        -7.5030 
 174   2.0000      -0.275590        -7.4992 
 175   2.0000      -0.265269        -7.2183 
 176   2.0000      -0.256081        -6.9683 
 177   2.0000      -0.235849        -6.4178 
 178   2.0000      -0.235801        -6.4165 
 179   2.0000      -0.224173        -6.1000 
 180   2.0000      -0.215262        -5.8576 
 181   0.0000      -0.091286        -2.4840 
 182   0.0000      -0.060128        -1.6362 
 183   0.0000      -0.052341        -1.4243 
 184   0.0000      -0.043997        -1.1972 
 185   0.0000      -0.039646        -1.0788 
 186   0.0000      -0.039597        -1.0775 
 187   0.0000      -0.036835        -1.0023 
 188   0.0000      -0.026735        -0.7275 
 189   0.0000      -0.014181        -0.3859 
 190   0.0000      -0.004322        -0.1176 
 191   0.0000      -0.004157        -0.1131 
*Only the first 10 virtual orbitals were printed.

                    ********************************
                    * MULLIKEN POPULATION ANALYSIS *
                    ********************************

-----------------------
MULLIKEN ATOMIC CHARGES
-----------------------
   0 C :    0.402505
   1 C :   -0.149593
   2 C :   -0.458429
   3 C :   -0.341961
   4 C :    0.199595
   5 C :   -0.234214
   6 C :    1.667730
   7 C :   -0.355603
   8 C :    0.178325
   9 C :   -0.232445
  10 H :    0.146942
  11 C :   -0.152588
  12 C :    0.385491
  13 C :   -0.383789
  14 H :    0.155176
  15 H :    0.156117
  16 H :    0.147345
  17 C :    0.248038
  18 C :   -0.234676
  19 C :   -0.489351
  20 C :   -0.313678
  21 C :    0.182237
  22 C :   -0.237183
  23 C :   -0.315875
  24 C :    0.183726
  25 C :   -0.236786
  26 H :    0.139085
  27 C :   -0.235187
  28 C :   -0.488741
  29 H :    0.164311
  30 N :    0.171319
  31 H :    0.163610
  32 H :    0.139253
  33 C :    0.115775
  34 C :   -0.271554
  35 H :    0.164018
  36 C :   -0.124731
  37 H :    0.135644
  38 C :   -0.148495
  39 H :    0.131519
  40 C :   -0.219972
  41 H :    0.133118
  42 C :    0.002411
  43 C :    0.247949
  44 C :   -0.315434
  45 C :   -0.315201
  46 C :    0.112527
  47 C :    0.002407
  48 C :   -0.223660
  49 H :    0.132872
  50 C :   -0.146524
  51 H :    0.131631
  52 C :   -0.115073
  53 H :    0.135719
  54 C :   -0.277273
  55 H :    0.149773
  56 N :    0.170255
  57 C :    0.116906
  58 C :   -0.271922
  59 H :    0.165439
  60 C :   -0.125219
  61 H :    0.135706
  62 C :   -0.149207
  63 H :    0.131413
  64 C :   -0.219407
  65 H :    0.133142
  66 C :    0.000738
  67 C :    0.112873
  68 C :    0.003121
  69 C :   -0.223568
  70 H :    0.132826
  71 C :   -0.146386
  72 H :    0.131683
  73 C :   -0.114746
  74 H :    0.135743
  75 C :   -0.277900
  76 H :    0.149870
  77 H :    0.162924
  78 H :    0.163530
  79 H :    0.159998
  80 N :   -0.022539
  81 N :   -0.023647
  82 H :    0.160220
Sum of atomic charges:   -0.0000000

--------------------------------
MULLIKEN REDUCED ORBITAL CHARGES
--------------------------------
  0 C s       :     2.995919  s :     2.995919
      pz      :     0.992128  p :     2.477027
      px      :     0.709143
      py      :     0.775757
      dz2     :     0.007149  d :     0.115591
      dxz     :     0.017029
      dyz     :     0.025429
      dx2y2   :     0.033742
      dxy     :     0.032242
      f0      :     0.001781  f :     0.008958
      f+1     :     0.000777
      f-1     :     0.000667
      f+2     :     0.000403
      f-2     :     0.001061
      f+3     :     0.001567
      f-3     :     0.002703

  1 C s       :     3.217192  s :     3.217192
      pz      :     0.937898  p :     2.833681
      px      :     0.949940
      py      :     0.945843
      dz2     :     0.005169  d :     0.091338
      dxz     :     0.018706
      dyz     :     0.011828
      dx2y2   :     0.019665
      dxy     :     0.035970
      f0      :     0.001544  f :     0.007381
      f+1     :     0.000608
      f-1     :     0.000664
      f+2     :     0.001040
      f-2     :     0.000332
      f+3     :     0.001096
      f-3     :     0.002098

  2 C s       :     3.503788  s :     3.503788
      pz      :     0.943137  p :     2.849736
      px      :     0.942615
      py      :     0.963985
      dz2     :     0.004869  d :     0.097538
      dxz     :     0.021903
      dyz     :     0.009219
      dx2y2   :     0.025559
      dxy     :     0.035988
      f0      :     0.001519  f :     0.007366
      f+1     :     0.000581
      f-1     :     0.000667
      f+2     :     0.000699
      f-2     :     0.000671
      f+3     :     0.001191
      f-3     :     0.002037

  3 C s       :     3.553936  s :     3.553936
      pz      :     0.932166  p :     2.633203
      px      :     0.792311
      py      :     0.908726
      dz2     :     0.005070  d :     0.144329
      dxz     :     0.026836
      dyz     :     0.022708
      dx2y2   :     0.042498
      dxy     :     0.047217
      f0      :     0.001747  f :     0.010493
      f+1     :     0.000696
      f-1     :     0.000686
      f+2     :     0.001114
      f-2     :     0.001036
      f+3     :     0.001905
      f-3     :     0.003309

  4 C s       :     3.214275  s :     3.214275
      pz      :     0.915664  p :     2.426228
      px      :     0.702468
      py      :     0.808096
      dz2     :     0.005347  d :     0.149546
      dxz     :     0.025944
      dyz     :     0.025046
      dx2y2   :     0.048377
      dxy     :     0.044831
      f0      :     0.001831  f :     0.010356
      f+1     :     0.000730
      f-1     :     0.000634
      f+2     :     0.000801
      f-2     :     0.001121
      f+3     :     0.001570
      f-3     :     0.003668

  5 C s       :     3.259950  s :     3.259950
      pz      :     0.962242  p :     2.875308
      px      :     0.950165
      py      :     0.962902
      dz2     :     0.004218  d :     0.091705
      dxz     :     0.019685
      dyz     :     0.008524
      dx2y2   :     0.028069
      dxy     :     0.031210
      f0      :     0.001524  f :     0.007250
      f+1     :     0.000571
      f-1     :     0.000664
      f+2     :     0.000692
      f-2     :     0.000573
      f+3     :     0.001072
      f-3     :     0.002154

  6 C s       :     1.681455  s :     1.681455
      pz      :     0.912576  p :     2.448289
      px      :     0.887887
      py      :     0.647826
      dz2     :     0.033182  d :     0.192342
      dxz     :     0.039529
      dyz     :     0.039111
      dx2y2   :     0.040868
      dxy     :     0.039652
      f0      :     0.001639  f :     0.010185
      f+1     :     0.000684
      f-1     :     0.001648
      f+2     :     0.000912
      f-2     :     0.001999
      f+3     :     0.001824
      f-3     :     0.001479

  7 C s       :     3.549818  s :     3.549818
      pz      :     0.935071  p :     2.650786
      px      :     0.814794
      py      :     0.900921
      dz2     :     0.005000  d :     0.144508
      dxz     :     0.026786
      dyz     :     0.022903
      dx2y2   :     0.041896
      dxy     :     0.047923
      f0      :     0.001753  f :     0.010491
      f+1     :     0.000734
      f-1     :     0.000644
      f+2     :     0.001116
      f-2     :     0.001034
      f+3     :     0.003172
      f-3     :     0.002037

  8 C s       :     3.225553  s :     3.225553
      pz      :     0.916983  p :     2.436180
      px      :     0.701021
      py      :     0.818176
      dz2     :     0.005468  d :     0.149585
      dxz     :     0.027671
      dyz     :     0.023245
      dx2y2   :     0.045787
      dxy     :     0.047414
      f0      :     0.001829  f :     0.010357
      f+1     :     0.000758
      f-1     :     0.000613
      f+2     :     0.001015
      f-2     :     0.000906
      f+3     :     0.002526
      f-3     :     0.002710

  9 C s       :     3.256408  s :     3.256408
      pz      :     0.963092  p :     2.877002
      px      :     0.940014
      py      :     0.973897
      dz2     :     0.004247  d :     0.091783
      dxz     :     0.021623
      dyz     :     0.006567
      dx2y2   :     0.034761
      dxy     :     0.024585
      f0      :     0.001522  f :     0.007252
      f+1     :     0.000559
      f-1     :     0.000682
      f+2     :     0.000366
      f-2     :     0.000899
      f+3     :     0.001729
      f-3     :     0.001495

 10 H s       :     0.830772  s :     0.830772
      pz      :     0.004575  p :     0.022286
      px      :     0.003979
      py      :     0.013731

 11 C s       :     3.218705  s :     3.218705
      pz      :     0.937196  p :     2.835216
      px      :     0.958167
      py      :     0.939853
      dz2     :     0.005103  d :     0.091285
      dxz     :     0.014961
      dyz     :     0.015608
      dx2y2   :     0.021603
      dxy     :     0.034010
      f0      :     0.001551  f :     0.007381
      f+1     :     0.000616
      f-1     :     0.000647
      f+2     :     0.001127
      f-2     :     0.000246
      f+3     :     0.001678
      f-3     :     0.001516

 12 C s       :     3.007448  s :     3.007448
      pz      :     0.991972  p :     2.482671
      px      :     0.709980
      py      :     0.780719
      dz2     :     0.007185  d :     0.115426
      dxz     :     0.017993
      dyz     :     0.024532
      dx2y2   :     0.033699
      dxy     :     0.032017
      f0      :     0.001781  f :     0.008965
      f+1     :     0.000771
      f-1     :     0.000680
      f+2     :     0.000594
      f-2     :     0.000870
      f+3     :     0.002274
      f-3     :     0.001996

 13 C s       :     3.434735  s :     3.434735
      pz      :     0.936114  p :     2.844636
      px      :     0.942560
      py      :     0.965962
      dz2     :     0.004897  d :     0.097060
      dxz     :     0.024282
      dyz     :     0.006615
      dx2y2   :     0.032345
      dxy     :     0.028921
      f0      :     0.001514  f :     0.007359
      f+1     :     0.000575
      f-1     :     0.000676
      f+2     :     0.000363
      f-2     :     0.001004
      f+3     :     0.001858
      f-3     :     0.001369

 14 H s       :     0.822489  s :     0.822489
      pz      :     0.004345  p :     0.022335
      px      :     0.004044
      py      :     0.013947

 15 H s       :     0.821547  s :     0.821547
      pz      :     0.004364  p :     0.022337
      px      :     0.005360
      py      :     0.012614

 16 H s       :     0.830359  s :     0.830359
      pz      :     0.004576  p :     0.022296
      px      :     0.005196
      py      :     0.012524

 17 C s       :     3.059337  s :     3.059337
      pz      :     0.709697  p :     2.516096
      px      :     0.961872
      py      :     0.844527
[...]
  0-1.0A  -> 23-3.0A    3.438006   27729.4   360.6   0.000000000   0.00000   0.00000   0.00000   0.00000
  0-1.0A  -> 24-3.0A    3.438517   27733.5   360.6   0.000000020   0.00000   0.00000   0.00000   0.00006
  0-1.0A  -> 25-3.0A    3.438517   27733.5   360.6   0.000000000   0.00000   0.00000   0.00000   0.00001
  0-1.0A  -> 26-3.0A    3.438517   27733.5   360.6   0.000000000   0.00000   0.00000   0.00000   0.00000
  0-1.0A  -> 27-1.0A    3.477203   28045.5   356.6   0.000003555   0.00000   0.00054   0.00001   0.00063
  0-1.0A  -> 28-3.0A    3.477597   28048.7   356.5   0.000000001   0.00000   0.00001   0.00000   0.00001
  0-1.0A  -> 29-3.0A    3.477597   28048.7   356.5   0.000000000   0.00000   0.00000   0.00000   0.00000
  0-1.0A  -> 30-3.0A    3.477597   28048.7   356.5   0.000000000   0.00000   0.00000   0.00000   0.00000
  0-1.0A  -> 31-1.0A    3.477899   28051.1   356.5   0.000003645   0.00000   0.00063   0.00004   0.00055
  0-1.0A  -> 32-3.0A    3.478242   28053.9   356.5   0.000000001   0.00000   0.00001   0.00000   0.00001
  0-1.0A  -> 33-3.0A    3.478242   28053.9   356.5   0.000000000   0.00000   0.00000   0.00000   0.00000
  0-1.0A  -> 34-3.0A    3.478242   28053.9   356.5   0.000000000   0.00000   0.00000   0.00000   0.00000
  0-1.0A  -> 35-1.0A    3.519674   28388.1   352.3   0.521210150   0.10112   0.00352   0.01349   0.31769
  0-1.0A  -> 36-1.0A    3.789062   30560.8   327.2   0.001255124   0.00026   0.00341   0.01574   0.00167
  0-1.0A  -> 37-1.0A    3.831428   30902.6   323.6   0.018575666   0.00392   0.06262   0.00110   0.00075
  0-1.0A  -> 38-1.0A    3.854531   31088.9   321.7   0.005577737   0.00119   0.03299   0.00978   0.00108
  0-1.0A  -> 39-1.0A    3.916810   31591.2   316.5   0.001544846   0.00033   0.00056   0.00049   0.01825
  0-1.0A  -> 40-1.0A    4.048228   32651.2   306.3   0.001633184   0.00036   0.00016   0.00016   0.01909

----------------------------------------------------------------------------------------------
      SOC CORRECTED CD SPECTRUM VIA TRANSITION ELECTRIC DIPOLE MOMENTS    
----------------------------------------------------------------------------------------------
      Transition         Energy     Energy  Wavelength    R       |MX|      |MY|      |MZ|  
                          (eV)      (cm-1)    (nm)    (1e40*cgs)  (au)      (au)      (au)  
----------------------------------------------------------------------------------------------
  0-1.0A  ->  1-3.0A    2.816007   22712.6   440.3   -0.00000   0.00000   0.00000   0.00004
  0-1.0A  ->  2-3.0A    2.816007   22712.6   440.3   -0.00000   0.00000   0.00001   0.00000
  0-1.0A  ->  3-3.0A    2.816007   22712.6   440.3   -0.00000   0.00000   0.00000   0.00000
  0-1.0A  ->  4-1.0A    2.835502   22869.9   437.3    0.41223   0.00302   0.00334   0.08328
  0-1.0A  ->  5-3.0A    2.951034   23801.7   420.1   -0.00000   0.00000   0.00000   0.00002
  0-1.0A  ->  6-3.0A    2.951034   23801.7   420.1   -0.00000   0.00000   0.00000   0.00000
  0-1.0A  ->  7-3.0A    2.951034   23801.7   420.1    0.00000   0.00001   0.00000   0.00000
  0-1.0A  ->  8-3.0A    2.972469   23974.6   417.1   -0.00000   0.00000   0.00000   0.00000
  0-1.0A  ->  9-3.0A    2.972469   23974.6   417.1    0.00000   0.00009   0.00000   0.00000
  0-1.0A  -> 10-3.0A    2.972469   23974.6   417.1    0.00000   0.00000   0.00000   0.00000
  0-1.0A  -> 11-3.0A    3.120823   25171.1   397.3    0.00000   0.00000   0.00001   0.00004
  0-1.0A  -> 12-3.0A    3.120823   25171.1   397.3    0.00000   0.00000   0.00001   0.00000
  0-1.0A  -> 13-3.0A    3.120823   25171.1   397.3   -0.00000   0.00000   0.00000   0.00000
  0-1.0A  -> 14-1.0A    3.121040   25172.9   397.3    0.01575   0.00502   0.02368   0.00111
  0-1.0A  -> 15-3.0A    3.398166   27408.1   364.9    0.00000   0.00013   0.00002   0.00000
  0-1.0A  -> 16-3.0A    3.398166   27408.1   364.9    0.00000   0.00009   0.00000   0.00000
  0-1.0A  -> 17-3.0A    3.398166   27408.1   364.9   -0.00000   0.00000   0.00000   0.00000
  0-1.0A  -> 18-3.0A    3.406228   27473.1   364.0    0.00000   0.00025   0.00000   0.00000
  0-1.0A  -> 19-3.0A    3.406228   27473.1   364.0   -0.00000   0.00000   0.00000   0.00000
  0-1.0A  -> 20-3.0A    3.406228   27473.1   364.0   -0.00000   0.00000   0.00000   0.00000
  0-1.0A  -> 21-3.0A    3.438006   27729.4   360.6   -0.00000   0.00015   0.00000   0.00001
  0-1.0A  -> 22-3.0A    3.438006   27729.4   360.6   -0.00000   0.00001   0.00000   0.00000
  0-1.0A  -> 23-3.0A    3.438006   27729.4   360.6   -0.00000   0.00001   0.00001   0.00000
  0-1.0A  -> 24-3.0A    3.438517   27733.5   360.6    0.00000   0.00015   0.00000   0.00001
  0-1.0A  -> 25-3.0A    3.438517   27733.5   360.6    0.00000   0.00001   0.00000   0.00000
  0-1.0A  -> 26-3.0A    3.438517   27733.5   360.6    0.00000   0.00001   0.00001   0.00000
  0-1.0A  -> 27-1.0A    3.477203   28045.5   356.6   -0.02773   0.00027   0.00321   0.00757
  0-1.0A  -> 28-3.0A    3.477597   28048.7   356.5    0.00001   0.00003   0.00001   0.00006
  0-1.0A  -> 29-3.0A    3.477597   28048.7   356.5   -0.00000   0.00000   0.00000   0.00000
  0-1.0A  -> 30-3.0A    3.477597   28048.7   356.5    0.00000   0.00001   0.00001   0.00001
  0-1.0A  -> 31-1.0A    3.477899   28051.1   356.5    0.03148   0.00102   0.00184   0.00837
  0-1.0A  -> 32-3.0A    3.478242   28053.9   356.5   -0.00000   0.00003   0.00000   0.00006
  0-1.0A  -> 33-3.0A    3.478242   28053.9   356.5    0.00000   0.00000   0.00000   0.00000
  0-1.0A  -> 34-3.0A    3.478242   28053.9   356.5   -0.00000   0.00001   0.00000   0.00001
  0-1.0A  -> 35-1.0A    3.519674   28388.1   352.3    0.39006   0.78718   0.02027   0.00957
  0-1.0A  -> 36-1.0A    3.789062   30560.8   327.2    0.65638   0.00416   0.00620   0.11756
  0-1.0A  -> 37-1.0A    3.831428   30902.6   323.6    2.61210   0.01118   0.02091   0.50177
  0-1.0A  -> 38-1.0A    3.854531   31088.9   321.7   -0.71056   0.00437   0.01122   0.21821
  0-1.0A  -> 39-1.0A    3.916810   31591.2   316.5    0.10017   0.06423   0.09910   0.00699
  0-1.0A  -> 40-1.0A    4.048228   32651.2   306.3   -2.06429   0.01945   0.01394   0.00300

----------------------------------------------------------------------------------------------
      SOC CORRECTED CD SPECTRUM VIA TRANSITION VELOCITY DIPOLE MOMENTS    
----------------------------------------------------------------------------------------------
      Transition         Energy     Energy  Wavelength    R       |MX|      |MY|      |MZ|  
                          (eV)      (cm-1)    (nm)    (1e40*cgs)  (au)      (au)      (au)  
----------------------------------------------------------------------------------------------
  0-1.0A  ->  1-3.0A    2.816007   22712.6   440.3   -0.00000   0.00000   0.00000   0.00004
  0-1.0A  ->  2-3.0A    2.816007   22712.6   440.3   -0.00000   0.00000   0.00001   0.00000
  0-1.0A  ->  3-3.0A    2.816007   22712.6   440.3    0.00000   0.00000   0.00000   0.00000
  0-1.0A  ->  4-1.0A    2.835502   22869.9   437.3    0.25733   0.00302   0.00334   0.08328
  0-1.0A  ->  5-3.0A    2.951034   23801.7   420.1   -0.00000   0.00000   0.00000   0.00002
  0-1.0A  ->  6-3.0A    2.951034   23801.7   420.1    0.00000   0.00000   0.00000   0.00000
  0-1.0A  ->  7-3.0A    2.951034   23801.7   420.1    0.00000   0.00001   0.00000   0.00000
  0-1.0A  ->  8-3.0A    2.972469   23974.6   417.1   -0.00000   0.00000   0.00000   0.00000
  0-1.0A  ->  9-3.0A    2.972469   23974.6   417.1    0.00000   0.00009   0.00000   0.00000
  0-1.0A  -> 10-3.0A    2.972469   23974.6   417.1    0.00000   0.00000   0.00000   0.00000
  0-1.0A  -> 11-3.0A    3.120823   25171.1   397.3    0.00000   0.00000   0.00001   0.00004
  0-1.0A  -> 12-3.0A    3.120823   25171.1   397.3    0.00000   0.00000   0.00001   0.00000
  0-1.0A  -> 13-3.0A    3.120823   25171.1   397.3    0.00000   0.00000   0.00000   0.00000
  0-1.0A  -> 14-1.0A    3.121040   25172.9   397.3    0.00986   0.00502   0.02368   0.00111
  0-1.0A  -> 15-3.0A    3.398166   27408.1   364.9    0.00000   0.00013   0.00002   0.00000
  0-1.0A  -> 16-3.0A    3.398166   27408.1   364.9    0.00000   0.00009   0.00000   0.00000
  0-1.0A  -> 17-3.0A    3.398166   27408.1   364.9    0.00000   0.00000   0.00000   0.00000
  0-1.0A  -> 18-3.0A    3.406228   27473.1   364.0    0.00000   0.00025   0.00000   0.00000
  0-1.0A  -> 19-3.0A    3.406228   27473.1   364.0   -0.00000   0.00000   0.00000   0.00000
  0-1.0A  -> 20-3.0A    3.406228   27473.1   364.0   -0.00000   0.00000   0.00000   0.00000
  0-1.0A  -> 21-3.0A    3.438006   27729.4   360.6   -0.00000   0.00015   0.00000   0.00001
  0-1.0A  -> 22-3.0A    3.438006   27729.4   360.6   -0.00000   0.00001   0.00000   0.00000
  0-1.0A  -> 23-3.0A    3.438006   27729.4   360.6   -0.00000   0.00001   0.00001   0.00000
  0-1.0A  -> 24-3.0A    3.438517   27733.5   360.6    0.00000   0.00015   0.00000   0.00001
  0-1.0A  -> 25-3.0A    3.438517   27733.5   360.6    0.00000   0.00001   0.00000   0.00000
  0-1.0A  -> 26-3.0A    3.438517   27733.5   360.6    0.00000   0.00001   0.00001   0.00000
  0-1.0A  -> 27-1.0A    3.477203   28045.5   356.6   -0.01811   0.00027   0.00321   0.00757
  0-1.0A  -> 28-3.0A    3.477597   28048.7   356.5    0.00000   0.00003   0.00001   0.00006
  0-1.0A  -> 29-3.0A    3.477597   28048.7   356.5   -0.00000   0.00000   0.00000   0.00000
  0-1.0A  -> 30-3.0A    3.477597   28048.7   356.5    0.00000   0.00001   0.00001   0.00001
  0-1.0A  -> 31-1.0A    3.477899   28051.1   356.5    0.01910   0.00102   0.00184   0.00837
  0-1.0A  -> 32-3.0A    3.478242   28053.9   356.5   -0.00000   0.00003   0.00000   0.00006
  0-1.0A  -> 33-3.0A    3.478242   28053.9   356.5    0.00000   0.00000   0.00000   0.00000
  0-1.0A  -> 34-3.0A    3.478242   28053.9   356.5   -0.00000   0.00001   0.00000   0.00001
  0-1.0A  -> 35-1.0A    3.519674   28388.1   352.3    0.01505   0.78718   0.02027   0.00957
  0-1.0A  -> 36-1.0A    3.789062   30560.8   327.2    0.38152   0.00416   0.00620   0.11756
  0-1.0A  -> 37-1.0A    3.831428   30902.6   323.6    1.16667   0.01118   0.02091   0.50177
  0-1.0A  -> 38-1.0A    3.854531   31088.9   321.7   -0.66952   0.00437   0.01122   0.21821
  0-1.0A  -> 39-1.0A    3.916810   31591.2   316.5    0.13937   0.06423   0.09910   0.00699
  0-1.0A  -> 40-1.0A    4.048228   32651.2   306.3   -0.16437   0.01945   0.01394   0.00300

Total run time:      999.308 sec

           *** ORCA-CIS/TD-DFT FINISHED WITHOUT ERROR ***

---------------------------
SOC CIS/TD-DFT TOTAL ENERGY
---------------------------

    E(SCF)        =  -2177.581464855 Eh
    E(SOC CIS)    =      0.103486368 Eh (SOC Root  1)
    ----------------------------- ---------
    E(tot)        =  -2177.477978486 Eh


Maximum memory used throughout the entire CIS-calculation: 3001.6 MB
=> NOW LEAVING ORCA_CIS

-------------------------   --------------------
FINAL SINGLE POINT ENERGY     -2177.477978486460
-------------------------   --------------------



           ************************************************************
           *        Program running with 16 parallel MPI-processes    *
           *              working on a common directory               *
           ************************************************************

------------------------------------------------------------------------------
                              ORCA PROPERTY CALCULATIONS
------------------------------------------------------------------------------

GBWName                                 ... BSF-2_SOC_nroots-10_pbe0_tzvp_cpcm-toluene.gbw
Number of atoms                         ...     83
Number of basis functions               ...   1873
Max core memory                         ...   5000 MB

Electric properties:
Dipole moment                           ... YES
Quadrupole moment                       ...  NO
Static polarizability (Dipole/Dipole)   ...  NO
Static polarizability (Dipole/Quad.)    ...  NO
Static polarizability (Quad./Quad.)     ...  NO
Static polarizability (Velocity)        ...  NO

Atomic electric properties:
Dipole moment                           ...  NO
Quadrupole moment                       ...  NO
Static polarizability                   ...  NO

Choice of electric origin               ... Center of mass
Position of electric origin             ...     0.351831    -3.588266    -0.147055

General magnetic properties:
Magnetizability                         ...  NO

EPR properties:
g-Tensor (aka g-matrix)                 ...  NO
Zero-Field splitting spin-orbit         ...  NO
Zero-field splitting spin-spin          ...  NO
Hyperfine couplings                     ...  NO (   0 nuclei)
Quadrupole couplings                    ...  NO (   0 nuclei)
Contact density                         ...  NO (   0 nuclei)

NMR properties:
Chemical shifts                         ...  NO (   0 nuclei)
Spin-rotation constants                 ...  NO (   0 nuclei)
Spin-spin couplings                     ...  NO (   0 nuclei,    0 pairs)

Choice of magnetic origin               ... GIAO
Position of magnetic origin             ...     0.000000     0.000000     0.000000

Properties with geometric perturbations:
SCF Hessian                             ...  NO
IR spectrum                             ...  NO
VCD spectrum                            ...  NO
X-ray spectroscopy properties:
SCF XES/XAS/RIXS spectra                ...  NO


-------------
DIPOLE MOMENT
-------------

Method             : SCF
Type of density    : Electron Density
Multiplicity       :   1
Irrep              :   0
Energy             : -2177.5814648549453523 Eh
Relativity type    : 
Basis              : AO
                                X                 Y                 Z
Electronic contribution:      1.088476624      -4.091773094      -0.180004803
Nuclear contribution   :     -1.011865713       3.742925703       0.167008391
                        -----------------------------------------
Total Dipole Moment    :      0.076610911      -0.348847390      -0.012996412
                        -----------------------------------------
Magnitude (a.u.)       :      0.357397034
Magnitude (Debye)      :      0.908431067



--------------------
Rotational spectrum 
--------------------
 
Rotational constants in cm-1:             0.002835             0.000983             0.000890 
Rotational constants in MHz :            84.994320            29.470090            26.677394 

Dipole components along the rotational axes: 
x,y,z [a.u.] :     0.002713     0.125723     0.334543 
x,y,z [Debye]:     0.006897     0.319563     0.850341 

 

Dipole moment calculation done in   0.2 sec 

Maximum memory used throughout the entire PROP-calculation: 249.5 MB

--------------------------------
SUGGESTED CITATIONS FOR THIS RUN
--------------------------------

Below you find a list of papers that are relevant to this ORCA run
We neither can nor want to force you to cite these papers, but we appreciate if you do
You receive ORCA, which is the product of decades of hard work by many enthusiastic individuals, for free
The only thing we kindly ask in return is that you cite our papers,
We deeply appreciate it, if you show your appreciation for ORCA by not just citing the generic ORCA reference.

Please note that relegating all ORCA citations to the supporting information does *not* help us.
SI sections are not indexed - citations you put there will not count into any citation statistics
But we need these citations in order to attract the funding resources that allow us to do what we are doing

Therefore, if you are a happy ORCA user, please consider citing a few of the papers listed below in the main body of your paper

In addition to the list printed below, the program has created the file BSF-2_SOC_nroots-10_pbe0_tzvp_cpcm-toluene.bibtex that contains the list in bibtex format
You can import this file easily into all common literature databanks and citation aid programs


List of essential papers. We consider these as the minimum necessary citations

  1. Neese,F.
     Software update: the ORCA program system, version 5.0
     WIRES Comput. Molec. Sci., 2022 12(1)e1606
     doi.org/10.1002/wcms.1606

List of papers to cite with high priority. The work reported in these papers was absolutely
necessary for this run to complete.
Our perspective: the developers of density functionals and basis sets usually get cited in chemistry papers
Good! But without the algorithms to do something with them, the functionals or basis sets would not do anything.
Hence, in our opinion, the algorithm design and method developments papers are equally worthy of getting cited

  1. Neese,F.; Olbrich,G.
     Efficient use of the resolution of the identity approximation in time-dependent density functional calculations with hybrid density functionals
     Chem. Phys. Lett., 2002 362 170-178
     doi.org/10.1016/s0009-2614(02)01053-9
  2. Neese,F.
     An improvement of the resolution of the identity approximation for the formation of the Coulomb matrix
     J. Comp. Chem., 2003 24(14)1740-1747
     doi.org/10.1002/jcc.10318
  3. Neese,F.; Wennmohs,F.; Hansen,A.; Becker,U.
     Efficient, approximate and parallel Hartree-Fock and hybrid DFT calculations. A 'chain-of-spheres' algorithm for the Hartree-Fock exchange
     Chem. Phys., 2009 356(1-3)98-109
     doi.org/10.1016/j.chemphys.2008.10.036
  4. Garcia-Rates,M.; Neese,F.
     Effect of the Solute Cavity on the Solvation Energy and its Derivatives within the Framework of the Gaussian Charge Scheme
     J. Comput. Chem., 2020 41 922-939
     doi.org/10.1002/jcc.26139
  5. Helmich-Paris,B.; de Souza,B.; Neese,F.; Izsák,R.
     An improved chain of spheres for exchange algorithm
     J. Chem. Phys., 2021 155 104109
     doi.org/doi: 10.1063/5.0058766.
  6. Neese,F.
     The SHARK Integral Generation and Digestion System
     J. Comp. Chem., 2022  1-16
     doi.org/10.1002/jcc.26942

List of suggested additional citations. These are papers that are important in the 'surrounding' of 
of this run, or papers that preceded the highly important papers. If you like your results we are grateful for a citation.

  1. Izsak,R.; Neese,F.
     An overlap fitted chain of spheres exchange method
     J. Chem. Phys., 2011 135 144105
     doi.org/10.1063/1.3646921
  2. Izsak,R.; Hansen,A.; Neese,F.
     The resolution of identity and chain of spheres approximations for the LPNO-CCSD singles Fock term
     Molec. Phys., 2012 110 2413-2417
     doi.org/10.1080/00268976.2012.687466
  3. Neese,F.
     The ORCA program system
     WIRES Comput. Molec. Sci., 2012 2(1)73-78
     doi.org/10.1002/wcms.81
  4. Izsak,R.; Neese,F.; Klopper,W.
     Robust fitting techniques in the chain of spheres approximation to the Fock exchange: The role of the complementary space
     J. Chem. Phys., 2013 139 
     doi.org/10.1063/1.4819264
  5. Neese,F.
     Software update: the ORCA program system, version 4.0
     WIRES Comput. Molec. Sci., 2018 8(1)1-6
     doi.org/10.1002/wcms.1327
  6. Neese,F.; Wennmohs,F.; Becker,U.; Riplinger,C.
     The ORCA quantum chemistry program package
     J. Chem. Phys., 2020 152 Art. No. L224108
     doi.org/10.1063/5.0004608

List of optional additional citations

  1. Neese,F.
     Approximate second-order SCF convergence for spin unrestricted wavefunctions
     Chem. Phys. Lett., 2000 325(1-3)93-98
     doi.org/10.1016/s0009-2614(00)00662-x

Timings for individual modules:

Sum of individual times          ...     1306.061 sec (=  21.768 min)
Startup calculation              ...        7.760 sec (=   0.129 min)   0.6 %
SCF iterations                   ...      264.516 sec (=   4.409 min)  20.3 %
Property integrals               ...       32.459 sec (=   0.541 min)   2.5 %
Property calculations            ...        1.124 sec (=   0.019 min)   0.1 %
CIS module                       ...     1000.202 sec (=  16.670 min)  76.6 %
                             ****ORCA TERMINATED NORMALLY****
TOTAL RUN TIME: 0 days 0 hours 21 minutes 46 seconds 713 msec
